+ 0.1 0 2 cbr 500 ------- 0 0.0 3.0 0 0
- 0.1 0 2 cbr 500 ------- 0 0.0 3.0 0 0
+ 0.105 0 2 cbr 500 ------- 0 0.0 3.0 1 1
- 0.105 0 2 cbr 500 ------- 0 0.0 3.0 1 1
+ 0.11 0 2 cbr 500 ------- 0 0.0 3.0 2 2
- 0.11 0 2 cbr 500 ------- 0 0.0 3.0 2 2
r 0.11002 0 2 cbr 500 ------- 0 0.0 3.0 0 0
+ 0.11002 2 3 cbr 500 ------- 0 0.0 3.0 0 0
- 0.11002 2 3 cbr 500 ------- 0 0.0 3.0 0 0
+ 0.115 0 2 cbr 500 ------- 0 0.0 3.0 3 3
- 0.115 0 2 cbr 500 ------- 0 0.0 3.0 3 3
r 0.11502 0 2 cbr 500 ------- 0 0.0 3.0 1 1
+ 0.11502 2 3 cbr 500 ------- 0 0.0 3.0 1 1
- 0.11502 2 3 cbr 500 ------- 0 0.0 3.0 1 1
+ 0.12 0 2 cbr 500 ------- 0 0.0 3.0 4 4
- 0.12 0 2 cbr 500 ------- 0 0.0 3.0 4 4
r 0.12002 0 2 cbr 500 ------- 0 0.0 3.0 2 2
+ 0.12002 2 3 cbr 500 ------- 0 0.0 3.0 2 2
- 0.12002 2 3 cbr 500 ------- 0 0.0 3.0 2 2
+ 0.125 0 2 cbr 500 ------- 0 0.0 3.0 5 5
- 0.125 0 2 cbr 500 ------- 0 0.0 3.0 5 5
r 0.12502 0 2 cbr 500 ------- 0 0.0 3.0 3 3
+ 0.12502 2 3 cbr 500 ------- 0 0.0 3.0 3 3
- 0.12502 2 3 cbr 500 ------- 0 0.0 3.0 3 3
+ 0.13 0 2 cbr 500 ------- 0 0.0 3.0 6 6
- 0.13 0 2 cbr 500 ------- 0 0.0 3.0 6 6
r 0.13002 0 2 cbr 500 ------- 0 0.0 3.0 4 4
+ 0.13002 2 3 cbr 500 ------- 0 0.0 3.0 4 4
- 0.13002 2 3 cbr 500 ------- 0 0.0 3.0 4 4
+ 0.135 0 2 cbr 500 ------- 0 0.0 3.0 7 7
- 0.135 0 2 cbr 500 ------- 0 0.0 3.0 7 7
r 0.13502 0 2 cbr 500 ------- 0 0.0 3.0 5 5
+ 0.13502 2 3 cbr 500 ------- 0 0.0 3.0 5 5
- 0.13502 2 3 cbr 500 ------- 0 0.0 3.0 5 5
+ 0.14 0 2 cbr 500 ------- 0 0.0 3.0 8 8
- 0.14 0 2 cbr 500 ------- 0 0.0 3.0 8 8
r 0.14002 0 2 cbr 500 ------- 0 0.0 3.0 6 6
+ 0.14002 2 3 cbr 500 ------- 0 0.0 3.0 6 6
- 0.14002 2 3 cbr 500 ------- 0 0.0 3.0 6 6
+ 0.145 0 2 cbr 500 ------- 0 0.0 3.0 9 9
- 0.145 0 2 cbr 500 ------- 0 0.0 3.0 9 9
r 0.14502 0 2 cbr 500 ------- 0 0.0 3.0 7 7
+ 0.14502 2 3 cbr 500 ------- 0 0.0 3.0 7 7
- 0.14502 2 3 cbr 500 ------- 0 0.0 3.0 7 7
+ 0.15 0 2 cbr 500 ------- 0 0.0 3.0 10 10
- 0.15 0 2 cbr 500 ------- 0 0.0 3.0 10 10
r 0.15002 0 2 cbr 500 ------- 0 0.0 3.0 8 8
+ 0.15002 2 3 cbr 500 ------- 0 0.0 3.0 8 8
- 0.15002 2 3 cbr 500 ------- 0 0.0 3.0 8 8
+ 0.155 0 2 cbr 500 ------- 0 0.0 3.0 11 11
- 0.155 0 2 cbr 500 ------- 0 0.0 3.0 11 11
r 0.15502 0 2 cbr 500 ------- 0 0.0 3.0 9 9
+ 0.15502 2 3 cbr 500 ------- 0 0.0 3.0 9 9
- 0.15502 2 3 cbr 500 ------- 0 0.0 3.0 9 9
+ 0.16 0 2 cbr 500 ------- 0 0.0 3.0 12 12
- 0.16 0 2 cbr 500 ------- 0 0.0 3.0 12 12
r 0.16002 0 2 cbr 500 ------- 0 0.0 3.0 10 10
+ 0.16002 2 3 cbr 500 ------- 0 0.0 3.0 10 10
- 0.16002 2 3 cbr 500 ------- 0 0.0 3.0 10 10
+ 0.165 0 2 cbr 500 ------- 0 0.0 3.0 13 13
- 0.165 0 2 cbr 500 ------- 0 0.0 3.0 13 13
r 0.16502 0 2 cbr 500 ------- 0 0.0 3.0 11 11
+ 0.16502 2 3 cbr 500 ------- 0 0.0 3.0 11 11
- 0.16502 2 3 cbr 500 ------- 0 0.0 3.0 11 11
+ 0.17 0 2 cbr 500 ------- 0 0.0 3.0 14 14
- 0.17 0 2 cbr 500 ------- 0 0.0 3.0 14 14
r 0.17002 0 2 cbr 500 ------- 0 0.0 3.0 12 12
+ 0.17002 2 3 cbr 500 ------- 0 0.0 3.0 12 12
- 0.17002 2 3 cbr 500 ------- 0 0.0 3.0 12 12
+ 0.175 0 2 cbr 500 ------- 0 0.0 3.0 15 15
- 0.175 0 2 cbr 500 ------- 0 0.0 3.0 15 15
r 0.17502 0 2 cbr 500 ------- 0 0.0 3.0 13 13
+ 0.17502 2 3 cbr 500 ------- 0 0.0 3.0 13 13
- 0.17502 2 3 cbr 500 ------- 0 0.0 3.0 13 13
+ 0.18 0 2 cbr 500 ------- 0 0.0 3.0 16 16
- 0.18 0 2 cbr 500 ------- 0 0.0 3.0 16 16
r 0.18002 0 2 cbr 500 ------- 0 0.0 3.0 14 14
+ 0.18002 2 3 cbr 500 ------- 0 0.0 3.0 14 14
- 0.18002 2 3 cbr 500 ------- 0 0.0 3.0 14 14
+ 0.185 0 2 cbr 500 ------- 0 0.0 3.0 17 17
- 0.185 0 2 cbr 500 ------- 0 0.0 3.0 17 17
r 0.18502 0 2 cbr 500 ------- 0 0.0 3.0 15 15
+ 0.18502 2 3 cbr 500 ------- 0 0.0 3.0 15 15
- 0.18502 2 3 cbr 500 ------- 0 0.0 3.0 15 15
+ 0.19 0 2 cbr 500 ------- 0 0.0 3.0 18 18
- 0.19 0 2 cbr 500 ------- 0 0.0 3.0 18 18
r 0.19002 0 2 cbr 500 ------- 0 0.0 3.0 16 16
+ 0.19002 2 3 cbr 500 ------- 0 0.0 3.0 16 16
- 0.19002 2 3 cbr 500 ------- 0 0.0 3.0 16 16
+ 0.195 0 2 cbr 500 ------- 0 0.0 3.0 19 19
- 0.195 0 2 cbr 500 ------- 0 0.0 3.0 19 19
r 0.19502 0 2 cbr 500 ------- 0 0.0 3.0 17 17
+ 0.19502 2 3 cbr 500 ------- 0 0.0 3.0 17 17
- 0.19502 2 3 cbr 500 ------- 0 0.0 3.0 17 17
+ 0.2 1 2 cbr 500 ------- 0 1.0 3.0 0 20
- 0.2 1 2 cbr 500 ------- 0 1.0 3.0 0 20
+ 0.2 0 2 cbr 500 ------- 0 0.0 3.0 20 21
- 0.2 0 2 cbr 500 ------- 0 0.0 3.0 20 21
r 0.20002 0 2 cbr 500 ------- 0 0.0 3.0 18 18
+ 0.20002 2 3 cbr 500 ------- 0 0.0 3.0 18 18
- 0.20002 2 3 cbr 500 ------- 0 0.0 3.0 18 18
+ 0.205 1 2 cbr 500 ------- 0 1.0 3.0 1 22
- 0.205 1 2 cbr 500 ------- 0 1.0 3.0 1 22
+ 0.205 0 2 cbr 500 ------- 0 0.0 3.0 21 23
- 0.205 0 2 cbr 500 ------- 0 0.0 3.0 21 23
r 0.20502 0 2 cbr 500 ------- 0 0.0 3.0 19 19
+ 0.20502 2 3 cbr 500 ------- 0 0.0 3.0 19 19
- 0.20502 2 3 cbr 500 ------- 0 0.0 3.0 19 19
r 0.20504 1 2 cbr 500 ------- 0 1.0 3.0 0 20
+ 0.20504 2 3 cbr 500 ------- 0 1.0 3.0 0 20
- 0.20902 2 3 cbr 500 ------- 0 1.0 3.0 0 20
+ 0.21 1 2 cbr 500 ------- 0 1.0 3.0 2 24
- 0.21 1 2 cbr 500 ------- 0 1.0 3.0 2 24
+ 0.21 0 2 cbr 500 ------- 0 0.0 3.0 22 25
- 0.21 0 2 cbr 500 ------- 0 0.0 3.0 22 25
r 0.21002 0 2 cbr 500 ------- 0 0.0 3.0 20 21
+ 0.21002 2 3 cbr 500 ------- 0 0.0 3.0 20 21
r 0.21004 1 2 cbr 500 ------- 0 1.0 3.0 1 22
+ 0.21004 2 3 cbr 500 ------- 0 1.0 3.0 1 22
- 0.21302 2 3 cbr 500 ------- 0 0.0 3.0 20 21
+ 0.215 1 2 cbr 500 ------- 0 1.0 3.0 3 26
- 0.215 1 2 cbr 500 ------- 0 1.0 3.0 3 26
+ 0.215 0 2 cbr 500 ------- 0 0.0 3.0 23 27
- 0.215 0 2 cbr 500 ------- 0 0.0 3.0 23 27
r 0.21502 0 2 cbr 500 ------- 0 0.0 3.0 21 23
+ 0.21502 2 3 cbr 500 ------- 0 0.0 3.0 21 23
r 0.21504 1 2 cbr 500 ------- 0 1.0 3.0 2 24
+ 0.21504 2 3 cbr 500 ------- 0 1.0 3.0 2 24
- 0.21702 2 3 cbr 500 ------- 0 1.0 3.0 1 22
+ 0.22 1 2 cbr 500 ------- 0 1.0 3.0 4 28
- 0.22 1 2 cbr 500 ------- 0 1.0 3.0 4 28
+ 0.22 0 2 cbr 500 ------- 0 0.0 3.0 24 29
- 0.22 0 2 cbr 500 ------- 0 0.0 3.0 24 29
r 0.22002 0 2 cbr 500 ------- 0 0.0 3.0 22 25
+ 0.22002 2 3 cbr 500 ------- 0 0.0 3.0 22 25
r 0.22004 1 2 cbr 500 ------- 0 1.0 3.0 3 26
+ 0.22004 2 3 cbr 500 ------- 0 1.0 3.0 3 26
- 0.22102 2 3 cbr 500 ------- 0 0.0 3.0 21 23
+ 0.225 1 2 cbr 500 ------- 0 1.0 3.0 5 30
- 0.225 1 2 cbr 500 ------- 0 1.0 3.0 5 30
+ 0.225 0 2 cbr 500 ------- 0 0.0 3.0 25 31
- 0.225 0 2 cbr 500 ------- 0 0.0 3.0 25 31
r 0.22502 0 2 cbr 500 ------- 0 0.0 3.0 23 27
+ 0.22502 2 3 cbr 500 ------- 0 0.0 3.0 23 27
- 0.22502 2 3 cbr 500 ------- 0 1.0 3.0 2 24
r 0.22504 1 2 cbr 500 ------- 0 1.0 3.0 4 28
+ 0.22504 2 3 cbr 500 ------- 0 1.0 3.0 4 28
- 0.22902 2 3 cbr 500 ------- 0 0.0 3.0 22 25
+ 0.23 1 2 cbr 500 ------- 0 1.0 3.0 6 32
- 0.23 1 2 cbr 500 ------- 0 1.0 3.0 6 32
+ 0.23 0 2 cbr 500 ------- 0 0.0 3.0 26 33
- 0.23 0 2 cbr 500 ------- 0 0.0 3.0 26 33
r 0.23002 0 2 cbr 500 ------- 0 0.0 3.0 24 29
+ 0.23002 2 3 cbr 500 ------- 0 0.0 3.0 24 29
r 0.23004 1 2 cbr 500 ------- 0 1.0 3.0 5 30
+ 0.23004 2 3 cbr 500 ------- 0 1.0 3.0 5 30
- 0.23302 2 3 cbr 500 ------- 0 1.0 3.0 3 26
+ 0.235 1 2 cbr 500 ------- 0 1.0 3.0 7 34
- 0.235 1 2 cbr 500 ------- 0 1.0 3.0 7 34
+ 0.235 0 2 cbr 500 ------- 0 0.0 3.0 27 35
- 0.235 0 2 cbr 500 ------- 0 0.0 3.0 27 35
r 0.23502 0 2 cbr 500 ------- 0 0.0 3.0 25 31
+ 0.23502 2 3 cbr 500 ------- 0 0.0 3.0 25 31
r 0.23504 1 2 cbr 500 ------- 0 1.0 3.0 6 32
+ 0.23504 2 3 cbr 500 ------- 0 1.0 3.0 6 32
- 0.23702 2 3 cbr 500 ------- 0 0.0 3.0 23 27
+ 0.24 1 2 cbr 500 ------- 0 1.0 3.0 8 36
- 0.24 1 2 cbr 500 ------- 0 1.0 3.0 8 36
+ 0.24 0 2 cbr 500 ------- 0 0.0 3.0 28 37
- 0.24 0 2 cbr 500 ------- 0 0.0 3.0 28 37
r 0.24002 0 2 cbr 500 ------- 0 0.0 3.0 26 33
+ 0.24002 2 3 cbr 500 ------- 0 0.0 3.0 26 33
r 0.24004 1 2 cbr 500 ------- 0 1.0 3.0 7 34
+ 0.24004 2 3 cbr 500 ------- 0 1.0 3.0 7 34
- 0.24102 2 3 cbr 500 ------- 0 1.0 3.0 4 28
+ 0.245 1 2 cbr 500 ------- 0 1.0 3.0 9 38
- 0.245 1 2 cbr 500 ------- 0 1.0 3.0 9 38
+ 0.245 0 2 cbr 500 ------- 0 0.0 3.0 29 39
- 0.245 0 2 cbr 500 ------- 0 0.0 3.0 29 39
r 0.24502 0 2 cbr 500 ------- 0 0.0 3.0 27 35
+ 0.24502 2 3 cbr 500 ------- 0 0.0 3.0 27 35
- 0.24502 2 3 cbr 500 ------- 0 0.0 3.0 24 29
r 0.24504 1 2 cbr 500 ------- 0 1.0 3.0 8 36
+ 0.24504 2 3 cbr 500 ------- 0 1.0 3.0 8 36
- 0.24902 2 3 cbr 500 ------- 0 1.0 3.0 5 30
+ 0.25 1 2 cbr 500 ------- 0 1.0 3.0 10 40
- 0.25 1 2 cbr 500 ------- 0 1.0 3.0 10 40
+ 0.25 0 2 cbr 500 ------- 0 0.0 3.0 30 41
- 0.25 0 2 cbr 500 ------- 0 0.0 3.0 30 41
r 0.25002 0 2 cbr 500 ------- 0 0.0 3.0 28 37
+ 0.25002 2 3 cbr 500 ------- 0 0.0 3.0 28 37
r 0.25004 1 2 cbr 500 ------- 0 1.0 3.0 9 38
+ 0.25004 2 3 cbr 500 ------- 0 1.0 3.0 9 38
- 0.25302 2 3 cbr 500 ------- 0 0.0 3.0 25 31
+ 0.255 1 2 cbr 500 ------- 0 1.0 3.0 11 42
- 0.255 1 2 cbr 500 ------- 0 1.0 3.0 11 42
+ 0.255 0 2 cbr 500 ------- 0 0.0 3.0 31 43
- 0.255 0 2 cbr 500 ------- 0 0.0 3.0 31 43
r 0.25502 0 2 cbr 500 ------- 0 0.0 3.0 29 39
+ 0.25502 2 3 cbr 500 ------- 0 0.0 3.0 29 39
r 0.25504 1 2 cbr 500 ------- 0 1.0 3.0 10 40
+ 0.25504 2 3 cbr 500 ------- 0 1.0 3.0 10 40
- 0.25702 2 3 cbr 500 ------- 0 1.0 3.0 6 32
+ 0.26 1 2 cbr 500 ------- 0 1.0 3.0 12 44
- 0.26 1 2 cbr 500 ------- 0 1.0 3.0 12 44
+ 0.26 0 2 cbr 500 ------- 0 0.0 3.0 32 45
- 0.26 0 2 cbr 500 ------- 0 0.0 3.0 32 45
r 0.26002 0 2 cbr 500 ------- 0 0.0 3.0 30 41
+ 0.26002 2 3 cbr 500 ------- 0 0.0 3.0 30 41
r 0.26004 1 2 cbr 500 ------- 0 1.0 3.0 11 42
+ 0.26004 2 3 cbr 500 ------- 0 1.0 3.0 11 42
d 0.26004 2 3 cbr 500 ------- 0 1.0 3.0 11 42
- 0.26102 2 3 cbr 500 ------- 0 0.0 3.0 26 33
+ 0.265 1 2 cbr 500 ------- 0 1.0 3.0 13 46
- 0.265 1 2 cbr 500 ------- 0 1.0 3.0 13 46
+ 0.265 0 2 cbr 500 ------- 0 0.0 3.0 33 47
- 0.265 0 2 cbr 500 ------- 0 0.0 3.0 33 47
r 0.26502 0 2 cbr 500 ------- 0 0.0 3.0 31 43
+ 0.26502 2 3 cbr 500 ------- 0 0.0 3.0 31 43
- 0.26502 2 3 cbr 500 ------- 0 1.0 3.0 7 34
r 0.26504 1 2 cbr 500 ------- 0 1.0 3.0 12 44
+ 0.26504 2 3 cbr 500 ------- 0 1.0 3.0 12 44
- 0.26902 2 3 cbr 500 ------- 0 0.0 3.0 27 35
+ 0.27 1 2 cbr 500 ------- 0 1.0 3.0 14 48
- 0.27 1 2 cbr 500 ------- 0 1.0 3.0 14 48
+ 0.27 0 2 cbr 500 ------- 0 0.0 3.0 34 49
- 0.27 0 2 cbr 500 ------- 0 0.0 3.0 34 49
r 0.27002 0 2 cbr 500 ------- 0 0.0 3.0 32 45
+ 0.27002 2 3 cbr 500 ------- 0 0.0 3.0 32 45
r 0.27004 1 2 cbr 500 ------- 0 1.0 3.0 13 46
+ 0.27004 2 3 cbr 500 ------- 0 1.0 3.0 13 46
d 0.27004 2 3 cbr 500 ------- 0 1.0 3.0 13 46
- 0.27302 2 3 cbr 500 ------- 0 1.0 3.0 8 36
+ 0.275 1 2 cbr 500 ------- 0 1.0 3.0 15 50
- 0.275 1 2 cbr 500 ------- 0 1.0 3.0 15 50
+ 0.275 0 2 cbr 500 ------- 0 0.0 3.0 35 51
- 0.275 0 2 cbr 500 ------- 0 0.0 3.0 35 51
r 0.27502 0 2 cbr 500 ------- 0 0.0 3.0 33 47
+ 0.27502 2 3 cbr 500 ------- 0 0.0 3.0 33 47
r 0.27504 1 2 cbr 500 ------- 0 1.0 3.0 14 48
+ 0.27504 2 3 cbr 500 ------- 0 1.0 3.0 14 48
d 0.27504 2 3 cbr 500 ------- 0 1.0 3.0 14 48
- 0.27702 2 3 cbr 500 ------- 0 0.0 3.0 28 37
+ 0.28 1 2 cbr 500 ------- 0 1.0 3.0 16 52
- 0.28 1 2 cbr 500 ------- 0 1.0 3.0 16 52
+ 0.28 0 2 cbr 500 ------- 0 0.0 3.0 36 53
- 0.28 0 2 cbr 500 ------- 0 0.0 3.0 36 53
r 0.28002 0 2 cbr 500 ------- 0 0.0 3.0 34 49
+ 0.28002 2 3 cbr 500 ------- 0 0.0 3.0 34 49
r 0.28004 1 2 cbr 500 ------- 0 1.0 3.0 15 50
+ 0.28004 2 3 cbr 500 ------- 0 1.0 3.0 15 50
d 0.28004 2 3 cbr 500 ------- 0 1.0 3.0 15 50
- 0.28102 2 3 cbr 500 ------- 0 1.0 3.0 9 38
+ 0.285 1 2 cbr 500 ------- 0 1.0 3.0 17 54
- 0.285 1 2 cbr 500 ------- 0 1.0 3.0 17 54
+ 0.285 0 2 cbr 500 ------- 0 0.0 3.0 37 55
- 0.285 0 2 cbr 500 ------- 0 0.0 3.0 37 55
r 0.28502 0 2 cbr 500 ------- 0 0.0 3.0 35 51
+ 0.28502 2 3 cbr 500 ------- 0 0.0 3.0 35 51
- 0.28502 2 3 cbr 500 ------- 0 0.0 3.0 29 39
r 0.28504 1 2 cbr 500 ------- 0 1.0 3.0 16 52
+ 0.28504 2 3 cbr 500 ------- 0 1.0 3.0 16 52
- 0.28902 2 3 cbr 500 ------- 0 1.0 3.0 10 40
+ 0.29 1 2 cbr 500 ------- 0 1.0 3.0 18 56
- 0.29 1 2 cbr 500 ------- 0 1.0 3.0 18 56
+ 0.29 0 2 cbr 500 ------- 0 0.0 3.0 38 57
- 0.29 0 2 cbr 500 ------- 0 0.0 3.0 38 57
r 0.29002 0 2 cbr 500 ------- 0 0.0 3.0 36 53
+ 0.29002 2 3 cbr 500 ------- 0 0.0 3.0 36 53
r 0.29004 1 2 cbr 500 ------- 0 1.0 3.0 17 54
+ 0.29004 2 3 cbr 500 ------- 0 1.0 3.0 17 54
d 0.29004 2 3 cbr 500 ------- 0 1.0 3.0 17 54
- 0.29302 2 3 cbr 500 ------- 0 0.0 3.0 30 41
+ 0.295 1 2 cbr 500 ------- 0 1.0 3.0 19 58
- 0.295 1 2 cbr 500 ------- 0 1.0 3.0 19 58
+ 0.295 0 2 cbr 500 ------- 0 0.0 3.0 39 59
- 0.295 0 2 cbr 500 ------- 0 0.0 3.0 39 59
r 0.29502 0 2 cbr 500 ------- 0 0.0 3.0 37 55
+ 0.29502 2 3 cbr 500 ------- 0 0.0 3.0 37 55
r 0.29504 1 2 cbr 500 ------- 0 1.0 3.0 18 56
+ 0.29504 2 3 cbr 500 ------- 0 1.0 3.0 18 56
d 0.29504 2 3 cbr 500 ------- 0 1.0 3.0 18 56
- 0.29702 2 3 cbr 500 ------- 0 0.0 3.0 31 43
+ 0.3 1 2 cbr 500 ------- 0 1.0 3.0 20 60
- 0.3 1 2 cbr 500 ------- 0 1.0 3.0 20 60
+ 0.3 0 2 cbr 500 ------- 0 0.0 3.0 40 61
- 0.3 0 2 cbr 500 ------- 0 0.0 3.0 40 61
r 0.30002 0 2 cbr 500 ------- 0 0.0 3.0 38 57
+ 0.30002 2 3 cbr 500 ------- 0 0.0 3.0 38 57
r 0.30004 1 2 cbr 500 ------- 0 1.0 3.0 19 58
+ 0.30004 2 3 cbr 500 ------- 0 1.0 3.0 19 58
d 0.30004 2 3 cbr 500 ------- 0 1.0 3.0 19 58
- 0.30102 2 3 cbr 500 ------- 0 1.0 3.0 12 44
+ 0.305 1 2 cbr 500 ------- 0 1.0 3.0 21 62
- 0.305 1 2 cbr 500 ------- 0 1.0 3.0 21 62
+ 0.305 0 2 cbr 500 ------- 0 0.0 3.0 41 63
- 0.305 0 2 cbr 500 ------- 0 0.0 3.0 41 63
r 0.30502 0 2 cbr 500 ------- 0 0.0 3.0 39 59
+ 0.30502 2 3 cbr 500 ------- 0 0.0 3.0 39 59
- 0.30502 2 3 cbr 500 ------- 0 0.0 3.0 32 45
r 0.30504 1 2 cbr 500 ------- 0 1.0 3.0 20 60
+ 0.30504 2 3 cbr 500 ------- 0 1.0 3.0 20 60
- 0.30902 2 3 cbr 500 ------- 0 0.0 3.0 33 47
+ 0.31 1 2 cbr 500 ------- 0 1.0 3.0 22 64
- 0.31 1 2 cbr 500 ------- 0 1.0 3.0 22 64
+ 0.31 0 2 cbr 500 ------- 0 0.0 3.0 42 65
- 0.31 0 2 cbr 500 ------- 0 0.0 3.0 42 65
r 0.31002 0 2 cbr 500 ------- 0 0.0 3.0 40 61
+ 0.31002 2 3 cbr 500 ------- 0 0.0 3.0 40 61
r 0.31004 1 2 cbr 500 ------- 0 1.0 3.0 21 62
+ 0.31004 2 3 cbr 500 ------- 0 1.0 3.0 21 62
d 0.31004 2 3 cbr 500 ------- 0 1.0 3.0 21 62
- 0.31302 2 3 cbr 500 ------- 0 0.0 3.0 34 49
+ 0.315 1 2 cbr 500 ------- 0 1.0 3.0 23 66
- 0.315 1 2 cbr 500 ------- 0 1.0 3.0 23 66
+ 0.315 0 2 cbr 500 ------- 0 0.0 3.0 43 67
- 0.315 0 2 cbr 500 ------- 0 0.0 3.0 43 67
r 0.31502 0 2 cbr 500 ------- 0 0.0 3.0 41 63
+ 0.31502 2 3 cbr 500 ------- 0 0.0 3.0 41 63
r 0.31504 1 2 cbr 500 ------- 0 1.0 3.0 22 64
+ 0.31504 2 3 cbr 500 ------- 0 1.0 3.0 22 64
d 0.31504 2 3 cbr 500 ------- 0 1.0 3.0 22 64
- 0.31702 2 3 cbr 500 ------- 0 0.0 3.0 35 51
+ 0.32 1 2 cbr 500 ------- 0 1.0 3.0 24 68
- 0.32 1 2 cbr 500 ------- 0 1.0 3.0 24 68
+ 0.32 0 2 cbr 500 ------- 0 0.0 3.0 44 69
- 0.32 0 2 cbr 500 ------- 0 0.0 3.0 44 69
r 0.32002 0 2 cbr 500 ------- 0 0.0 3.0 42 65
+ 0.32002 2 3 cbr 500 ------- 0 0.0 3.0 42 65
r 0.32004 1 2 cbr 500 ------- 0 1.0 3.0 23 66
+ 0.32004 2 3 cbr 500 ------- 0 1.0 3.0 23 66
d 0.32004 2 3 cbr 500 ------- 0 1.0 3.0 23 66
- 0.32102 2 3 cbr 500 ------- 0 1.0 3.0 16 52
+ 0.325 1 2 cbr 500 ------- 0 1.0 3.0 25 70
- 0.325 1 2 cbr 500 ------- 0 1.0 3.0 25 70
+ 0.325 0 2 cbr 500 ------- 0 0.0 3.0 45 71
- 0.325 0 2 cbr 500 ------- 0 0.0 3.0 45 71
r 0.32502 0 2 cbr 500 ------- 0 0.0 3.0 43 67
+ 0.32502 2 3 cbr 500 ------- 0 0.0 3.0 43 67
- 0.32502 2 3 cbr 500 ------- 0 0.0 3.0 36 53
r 0.32504 1 2 cbr 500 ------- 0 1.0 3.0 24 68
+ 0.32504 2 3 cbr 500 ------- 0 1.0 3.0 24 68
- 0.32902 2 3 cbr 500 ------- 0 0.0 3.0 37 55
+ 0.33 1 2 cbr 500 ------- 0 1.0 3.0 26 72
- 0.33 1 2 cbr 500 ------- 0 1.0 3.0 26 72
+ 0.33 0 2 cbr 500 ------- 0 0.0 3.0 46 73
- 0.33 0 2 cbr 500 ------- 0 0.0 3.0 46 73
r 0.33002 0 2 cbr 500 ------- 0 0.0 3.0 44 69
+ 0.33002 2 3 cbr 500 ------- 0 0.0 3.0 44 69
r 0.33004 1 2 cbr 500 ------- 0 1.0 3.0 25 70
+ 0.33004 2 3 cbr 500 ------- 0 1.0 3.0 25 70
d 0.33004 2 3 cbr 500 ------- 0 1.0 3.0 25 70
- 0.33302 2 3 cbr 500 ------- 0 0.0 3.0 38 57
+ 0.335 1 2 cbr 500 ------- 0 1.0 3.0 27 74
- 0.335 1 2 cbr 500 ------- 0 1.0 3.0 27 74
+ 0.335 0 2 cbr 500 ------- 0 0.0 3.0 47 75
- 0.335 0 2 cbr 500 ------- 0 0.0 3.0 47 75
r 0.33502 0 2 cbr 500 ------- 0 0.0 3.0 45 71
+ 0.33502 2 3 cbr 500 ------- 0 0.0 3.0 45 71
r 0.33504 1 2 cbr 500 ------- 0 1.0 3.0 26 72
+ 0.33504 2 3 cbr 500 ------- 0 1.0 3.0 26 72
d 0.33504 2 3 cbr 500 ------- 0 1.0 3.0 26 72
- 0.33702 2 3 cbr 500 ------- 0 0.0 3.0 39 59
+ 0.34 1 2 cbr 500 ------- 0 1.0 3.0 28 76
- 0.34 1 2 cbr 500 ------- 0 1.0 3.0 28 76
+ 0.34 0 2 cbr 500 ------- 0 0.0 3.0 48 77
- 0.34 0 2 cbr 500 ------- 0 0.0 3.0 48 77
r 0.34002 0 2 cbr 500 ------- 0 0.0 3.0 46 73
+ 0.34002 2 3 cbr 500 ------- 0 0.0 3.0 46 73
r 0.34004 1 2 cbr 500 ------- 0 1.0 3.0 27 74
+ 0.34004 2 3 cbr 500 ------- 0 1.0 3.0 27 74
d 0.34004 2 3 cbr 500 ------- 0 1.0 3.0 27 74
- 0.34102 2 3 cbr 500 ------- 0 1.0 3.0 20 60
+ 0.345 1 2 cbr 500 ------- 0 1.0 3.0 29 78
- 0.345 1 2 cbr 500 ------- 0 1.0 3.0 29 78
+ 0.345 0 2 cbr 500 ------- 0 0.0 3.0 49 79
- 0.345 0 2 cbr 500 ------- 0 0.0 3.0 49 79
r 0.34502 0 2 cbr 500 ------- 0 0.0 3.0 47 75
+ 0.34502 2 3 cbr 500 ------- 0 0.0 3.0 47 75
- 0.34502 2 3 cbr 500 ------- 0 0.0 3.0 40 61
r 0.34504 1 2 cbr 500 ------- 0 1.0 3.0 28 76
+ 0.34504 2 3 cbr 500 ------- 0 1.0 3.0 28 76
- 0.34902 2 3 cbr 500 ------- 0 0.0 3.0 41 63
+ 0.35 1 2 cbr 500 ------- 0 1.0 3.0 30 80
- 0.35 1 2 cbr 500 ------- 0 1.0 3.0 30 80
+ 0.35 0 2 cbr 500 ------- 0 0.0 3.0 50 81
- 0.35 0 2 cbr 500 ------- 0 0.0 3.0 50 81
r 0.35002 0 2 cbr 500 ------- 0 0.0 3.0 48 77
+ 0.35002 2 3 cbr 500 ------- 0 0.0 3.0 48 77
r 0.35004 1 2 cbr 500 ------- 0 1.0 3.0 29 78
+ 0.35004 2 3 cbr 500 ------- 0 1.0 3.0 29 78
d 0.35004 2 3 cbr 500 ------- 0 1.0 3.0 29 78
- 0.35302 2 3 cbr 500 ------- 0 0.0 3.0 42 65
+ 0.355 1 2 cbr 500 ------- 0 1.0 3.0 31 82
- 0.355 1 2 cbr 500 ------- 0 1.0 3.0 31 82
+ 0.355 0 2 cbr 500 ------- 0 0.0 3.0 51 83
- 0.355 0 2 cbr 500 ------- 0 0.0 3.0 51 83
r 0.35502 0 2 cbr 500 ------- 0 0.0 3.0 49 79
+ 0.35502 2 3 cbr 500 ------- 0 0.0 3.0 49 79
r 0.35504 1 2 cbr 500 ------- 0 1.0 3.0 30 80
+ 0.35504 2 3 cbr 500 ------- 0 1.0 3.0 30 80
d 0.35504 2 3 cbr 500 ------- 0 1.0 3.0 30 80
- 0.35702 2 3 cbr 500 ------- 0 0.0 3.0 43 67
+ 0.36 1 2 cbr 500 ------- 0 1.0 3.0 32 84
- 0.36 1 2 cbr 500 ------- 0 1.0 3.0 32 84
+ 0.36 0 2 cbr 500 ------- 0 0.0 3.0 52 85
- 0.36 0 2 cbr 500 ------- 0 0.0 3.0 52 85
r 0.36002 0 2 cbr 500 ------- 0 0.0 3.0 50 81
+ 0.36002 2 3 cbr 500 ------- 0 0.0 3.0 50 81
r 0.36004 1 2 cbr 500 ------- 0 1.0 3.0 31 82
+ 0.36004 2 3 cbr 500 ------- 0 1.0 3.0 31 82
d 0.36004 2 3 cbr 500 ------- 0 1.0 3.0 31 82
- 0.36102 2 3 cbr 500 ------- 0 1.0 3.0 24 68
+ 0.365 1 2 cbr 500 ------- 0 1.0 3.0 33 86
- 0.365 1 2 cbr 500 ------- 0 1.0 3.0 33 86
+ 0.365 0 2 cbr 500 ------- 0 0.0 3.0 53 87
- 0.365 0 2 cbr 500 ------- 0 0.0 3.0 53 87
r 0.36502 0 2 cbr 500 ------- 0 0.0 3.0 51 83
+ 0.36502 2 3 cbr 500 ------- 0 0.0 3.0 51 83
- 0.36502 2 3 cbr 500 ------- 0 0.0 3.0 44 69
r 0.36504 1 2 cbr 500 ------- 0 1.0 3.0 32 84
+ 0.36504 2 3 cbr 500 ------- 0 1.0 3.0 32 84
- 0.36902 2 3 cbr 500 ------- 0 0.0 3.0 45 71
+ 0.37 1 2 cbr 500 ------- 0 1.0 3.0 34 88
- 0.37 1 2 cbr 500 ------- 0 1.0 3.0 34 88
+ 0.37 0 2 cbr 500 ------- 0 0.0 3.0 54 89
- 0.37 0 2 cbr 500 ------- 0 0.0 3.0 54 89
r 0.37002 0 2 cbr 500 ------- 0 0.0 3.0 52 85
+ 0.37002 2 3 cbr 500 ------- 0 0.0 3.0 52 85
r 0.37004 1 2 cbr 500 ------- 0 1.0 3.0 33 86
+ 0.37004 2 3 cbr 500 ------- 0 1.0 3.0 33 86
d 0.37004 2 3 cbr 500 ------- 0 1.0 3.0 33 86
- 0.37302 2 3 cbr 500 ------- 0 0.0 3.0 46 73
+ 0.375 1 2 cbr 500 ------- 0 1.0 3.0 35 90
- 0.375 1 2 cbr 500 ------- 0 1.0 3.0 35 90
+ 0.375 0 2 cbr 500 ------- 0 0.0 3.0 55 91
- 0.375 0 2 cbr 500 ------- 0 0.0 3.0 55 91
r 0.37502 0 2 cbr 500 ------- 0 0.0 3.0 53 87
+ 0.37502 2 3 cbr 500 ------- 0 0.0 3.0 53 87
r 0.37504 1 2 cbr 500 ------- 0 1.0 3.0 34 88
+ 0.37504 2 3 cbr 500 ------- 0 1.0 3.0 34 88
d 0.37504 2 3 cbr 500 ------- 0 1.0 3.0 34 88
- 0.37702 2 3 cbr 500 ------- 0 0.0 3.0 47 75
+ 0.38 1 2 cbr 500 ------- 0 1.0 3.0 36 92
- 0.38 1 2 cbr 500 ------- 0 1.0 3.0 36 92
+ 0.38 0 2 cbr 500 ------- 0 0.0 3.0 56 93
- 0.38 0 2 cbr 500 ------- 0 0.0 3.0 56 93
r 0.38002 0 2 cbr 500 ------- 0 0.0 3.0 54 89
+ 0.38002 2 3 cbr 500 ------- 0 0.0 3.0 54 89
r 0.38004 1 2 cbr 500 ------- 0 1.0 3.0 35 90
+ 0.38004 2 3 cbr 500 ------- 0 1.0 3.0 35 90
d 0.38004 2 3 cbr 500 ------- 0 1.0 3.0 35 90
- 0.38102 2 3 cbr 500 ------- 0 1.0 3.0 28 76
+ 0.385 1 2 cbr 500 ------- 0 1.0 3.0 37 94
- 0.385 1 2 cbr 500 ------- 0 1.0 3.0 37 94
+ 0.385 0 2 cbr 500 ------- 0 0.0 3.0 57 95
- 0.385 0 2 cbr 500 ------- 0 0.0 3.0 57 95
r 0.38502 0 2 cbr 500 ------- 0 0.0 3.0 55 91
+ 0.38502 2 3 cbr 500 ------- 0 0.0 3.0 55 91
- 0.38502 2 3 cbr 500 ------- 0 0.0 3.0 48 77
r 0.38504 1 2 cbr 500 ------- 0 1.0 3.0 36 92
+ 0.38504 2 3 cbr 500 ------- 0 1.0 3.0 36 92
- 0.38902 2 3 cbr 500 ------- 0 0.0 3.0 49 79
+ 0.39 1 2 cbr 500 ------- 0 1.0 3.0 38 96
- 0.39 1 2 cbr 500 ------- 0 1.0 3.0 38 96
+ 0.39 0 2 cbr 500 ------- 0 0.0 3.0 58 97
- 0.39 0 2 cbr 500 ------- 0 0.0 3.0 58 97
r 0.39002 0 2 cbr 500 ------- 0 0.0 3.0 56 93
+ 0.39002 2 3 cbr 500 ------- 0 0.0 3.0 56 93
r 0.39004 1 2 cbr 500 ------- 0 1.0 3.0 37 94
+ 0.39004 2 3 cbr 500 ------- 0 1.0 3.0 37 94
d 0.39004 2 3 cbr 500 ------- 0 1.0 3.0 37 94
- 0.39302 2 3 cbr 500 ------- 0 0.0 3.0 50 81
+ 0.395 1 2 cbr 500 ------- 0 1.0 3.0 39 98
- 0.395 1 2 cbr 500 ------- 0 1.0 3.0 39 98
+ 0.395 0 2 cbr 500 ------- 0 0.0 3.0 59 99
- 0.395 0 2 cbr 500 ------- 0 0.0 3.0 59 99
r 0.39502 0 2 cbr 500 ------- 0 0.0 3.0 57 95
+ 0.39502 2 3 cbr 500 ------- 0 0.0 3.0 57 95
r 0.39504 1 2 cbr 500 ------- 0 1.0 3.0 38 96
+ 0.39504 2 3 cbr 500 ------- 0 1.0 3.0 38 96
d 0.39504 2 3 cbr 500 ------- 0 1.0 3.0 38 96
- 0.39702 2 3 cbr 500 ------- 0 0.0 3.0 51 83
+ 0.4 1 2 cbr 500 ------- 0 1.0 3.0 40 100
- 0.4 1 2 cbr 500 ------- 0 1.0 3.0 40 100
+ 0.4 0 2 cbr 500 ------- 0 0.0 3.0 60 101
- 0.4 0 2 cbr 500 ------- 0 0.0 3.0 60 101
r 0.40002 0 2 cbr 500 ------- 0 0.0 3.0 58 97
+ 0.40002 2 3 cbr 500 ------- 0 0.0 3.0 58 97
r 0.40004 1 2 cbr 500 ------- 0 1.0 3.0 39 98
+ 0.40004 2 3 cbr 500 ------- 0 1.0 3.0 39 98
d 0.40004 2 3 cbr 500 ------- 0 1.0 3.0 39 98
- 0.40102 2 3 cbr 500 ------- 0 1.0 3.0 32 84
+ 0.405 1 2 cbr 500 ------- 0 1.0 3.0 41 102
- 0.405 1 2 cbr 500 ------- 0 1.0 3.0 41 102
+ 0.405 0 2 cbr 500 ------- 0 0.0 3.0 61 103
- 0.405 0 2 cbr 500 ------- 0 0.0 3.0 61 103
r 0.40502 0 2 cbr 500 ------- 0 0.0 3.0 59 99
+ 0.40502 2 3 cbr 500 ------- 0 0.0 3.0 59 99
- 0.40502 2 3 cbr 500 ------- 0 0.0 3.0 52 85
r 0.40504 1 2 cbr 500 ------- 0 1.0 3.0 40 100
+ 0.40504 2 3 cbr 500 ------- 0 1.0 3.0 40 100
- 0.40902 2 3 cbr 500 ------- 0 0.0 3.0 53 87
+ 0.41 1 2 cbr 500 ------- 0 1.0 3.0 42 104
- 0.41 1 2 cbr 500 ------- 0 1.0 3.0 42 104
+ 0.41 0 2 cbr 500 ------- 0 0.0 3.0 62 105
- 0.41 0 2 cbr 500 ------- 0 0.0 3.0 62 105
r 0.41002 0 2 cbr 500 ------- 0 0.0 3.0 60 101
+ 0.41002 2 3 cbr 500 ------- 0 0.0 3.0 60 101
r 0.41004 1 2 cbr 500 ------- 0 1.0 3.0 41 102
+ 0.41004 2 3 cbr 500 ------- 0 1.0 3.0 41 102
d 0.41004 2 3 cbr 500 ------- 0 1.0 3.0 41 102
- 0.41302 2 3 cbr 500 ------- 0 0.0 3.0 54 89
+ 0.415 1 2 cbr 500 ------- 0 1.0 3.0 43 106
- 0.415 1 2 cbr 500 ------- 0 1.0 3.0 43 106
+ 0.415 0 2 cbr 500 ------- 0 0.0 3.0 63 107
- 0.415 0 2 cbr 500 ------- 0 0.0 3.0 63 107
r 0.41502 0 2 cbr 500 ------- 0 0.0 3.0 61 103
+ 0.41502 2 3 cbr 500 ------- 0 0.0 3.0 61 103
r 0.41504 1 2 cbr 500 ------- 0 1.0 3.0 42 104
+ 0.41504 2 3 cbr 500 ------- 0 1.0 3.0 42 104
d 0.41504 2 3 cbr 500 ------- 0 1.0 3.0 42 104
- 0.41702 2 3 cbr 500 ------- 0 0.0 3.0 55 91
+ 0.42 1 2 cbr 500 ------- 0 1.0 3.0 44 108
- 0.42 1 2 cbr 500 ------- 0 1.0 3.0 44 108
+ 0.42 0 2 cbr 500 ------- 0 0.0 3.0 64 109
- 0.42 0 2 cbr 500 ------- 0 0.0 3.0 64 109
r 0.42002 0 2 cbr 500 ------- 0 0.0 3.0 62 105
+ 0.42002 2 3 cbr 500 ------- 0 0.0 3.0 62 105
r 0.42004 1 2 cbr 500 ------- 0 1.0 3.0 43 106
+ 0.42004 2 3 cbr 500 ------- 0 1.0 3.0 43 106
d 0.42004 2 3 cbr 500 ------- 0 1.0 3.0 43 106
- 0.42102 2 3 cbr 500 ------- 0 1.0 3.0 36 92
+ 0.425 1 2 cbr 500 ------- 0 1.0 3.0 45 110
- 0.425 1 2 cbr 500 ------- 0 1.0 3.0 45 110
+ 0.425 0 2 cbr 500 ------- 0 0.0 3.0 65 111
- 0.425 0 2 cbr 500 ------- 0 0.0 3.0 65 111
r 0.42502 0 2 cbr 500 ------- 0 0.0 3.0 63 107
+ 0.42502 2 3 cbr 500 ------- 0 0.0 3.0 63 107
- 0.42502 2 3 cbr 500 ------- 0 0.0 3.0 56 93
r 0.42504 1 2 cbr 500 ------- 0 1.0 3.0 44 108
+ 0.42504 2 3 cbr 500 ------- 0 1.0 3.0 44 108
- 0.42902 2 3 cbr 500 ------- 0 0.0 3.0 57 95
+ 0.43 1 2 cbr 500 ------- 0 1.0 3.0 46 112
- 0.43 1 2 cbr 500 ------- 0 1.0 3.0 46 112
+ 0.43 0 2 cbr 500 ------- 0 0.0 3.0 66 113
- 0.43 0 2 cbr 500 ------- 0 0.0 3.0 66 113
r 0.43002 0 2 cbr 500 ------- 0 0.0 3.0 64 109
+ 0.43002 2 3 cbr 500 ------- 0 0.0 3.0 64 109
r 0.43004 1 2 cbr 500 ------- 0 1.0 3.0 45 110
+ 0.43004 2 3 cbr 500 ------- 0 1.0 3.0 45 110
d 0.43004 2 3 cbr 500 ------- 0 1.0 3.0 45 110
- 0.43302 2 3 cbr 500 ------- 0 0.0 3.0 58 97
+ 0.435 1 2 cbr 500 ------- 0 1.0 3.0 47 114
- 0.435 1 2 cbr 500 ------- 0 1.0 3.0 47 114
+ 0.435 0 2 cbr 500 ------- 0 0.0 3.0 67 115
- 0.435 0 2 cbr 500 ------- 0 0.0 3.0 67 115
r 0.43502 0 2 cbr 500 ------- 0 0.0 3.0 65 111
+ 0.43502 2 3 cbr 500 ------- 0 0.0 3.0 65 111
r 0.43504 1 2 cbr 500 ------- 0 1.0 3.0 46 112
+ 0.43504 2 3 cbr 500 ------- 0 1.0 3.0 46 112
d 0.43504 2 3 cbr 500 ------- 0 1.0 3.0 46 112
- 0.43702 2 3 cbr 500 ------- 0 0.0 3.0 59 99
+ 0.44 1 2 cbr 500 ------- 0 1.0 3.0 48 116
- 0.44 1 2 cbr 500 ------- 0 1.0 3.0 48 116
+ 0.44 0 2 cbr 500 ------- 0 0.0 3.0 68 117
- 0.44 0 2 cbr 500 ------- 0 0.0 3.0 68 117
r 0.44002 0 2 cbr 500 ------- 0 0.0 3.0 66 113
+ 0.44002 2 3 cbr 500 ------- 0 0.0 3.0 66 113
r 0.44004 1 2 cbr 500 ------- 0 1.0 3.0 47 114
+ 0.44004 2 3 cbr 500 ------- 0 1.0 3.0 47 114
d 0.44004 2 3 cbr 500 ------- 0 1.0 3.0 47 114
- 0.44102 2 3 cbr 500 ------- 0 1.0 3.0 40 100
+ 0.445 1 2 cbr 500 ------- 0 1.0 3.0 49 118
- 0.445 1 2 cbr 500 ------- 0 1.0 3.0 49 118
+ 0.445 0 2 cbr 500 ------- 0 0.0 3.0 69 119
- 0.445 0 2 cbr 500 ------- 0 0.0 3.0 69 119
r 0.44502 0 2 cbr 500 ------- 0 0.0 3.0 67 115
+ 0.44502 2 3 cbr 500 ------- 0 0.0 3.0 67 115
- 0.44502 2 3 cbr 500 ------- 0 0.0 3.0 60 101
r 0.44504 1 2 cbr 500 ------- 0 1.0 3.0 48 116
+ 0.44504 2 3 cbr 500 ------- 0 1.0 3.0 48 116
- 0.44902 2 3 cbr 500 ------- 0 0.0 3.0 61 103
+ 0.45 1 2 cbr 500 ------- 0 1.0 3.0 50 120
- 0.45 1 2 cbr 500 ------- 0 1.0 3.0 50 120
+ 0.45 0 2 cbr 500 ------- 0 0.0 3.0 70 121
- 0.45 0 2 cbr 500 ------- 0 0.0 3.0 70 121
r 0.45002 0 2 cbr 500 ------- 0 0.0 3.0 68 117
+ 0.45002 2 3 cbr 500 ------- 0 0.0 3.0 68 117
r 0.45004 1 2 cbr 500 ------- 0 1.0 3.0 49 118
+ 0.45004 2 3 cbr 500 ------- 0 1.0 3.0 49 118
d 0.45004 2 3 cbr 500 ------- 0 1.0 3.0 49 118
- 0.45302 2 3 cbr 500 ------- 0 0.0 3.0 62 105
+ 0.455 1 2 cbr 500 ------- 0 1.0 3.0 51 122
- 0.455 1 2 cbr 500 ------- 0 1.0 3.0 51 122
+ 0.455 0 2 cbr 500 ------- 0 0.0 3.0 71 123
- 0.455 0 2 cbr 500 ------- 0 0.0 3.0 71 123
r 0.45502 0 2 cbr 500 ------- 0 0.0 3.0 69 119
+ 0.45502 2 3 cbr 500 ------- 0 0.0 3.0 69 119
r 0.45504 1 2 cbr 500 ------- 0 1.0 3.0 50 120
+ 0.45504 2 3 cbr 500 ------- 0 1.0 3.0 50 120
d 0.45504 2 3 cbr 500 ------- 0 1.0 3.0 50 120
- 0.45702 2 3 cbr 500 ------- 0 0.0 3.0 63 107
+ 0.46 1 2 cbr 500 ------- 0 1.0 3.0 52 124
- 0.46 1 2 cbr 500 ------- 0 1.0 3.0 52 124
+ 0.46 0 2 cbr 500 ------- 0 0.0 3.0 72 125
- 0.46 0 2 cbr 500 ------- 0 0.0 3.0 72 125
r 0.46002 0 2 cbr 500 ------- 0 0.0 3.0 70 121
+ 0.46002 2 3 cbr 500 ------- 0 0.0 3.0 70 121
r 0.46004 1 2 cbr 500 ------- 0 1.0 3.0 51 122
+ 0.46004 2 3 cbr 500 ------- 0 1.0 3.0 51 122
d 0.46004 2 3 cbr 500 ------- 0 1.0 3.0 51 122
- 0.46102 2 3 cbr 500 ------- 0 1.0 3.0 44 108
+ 0.465 1 2 cbr 500 ------- 0 1.0 3.0 53 126
- 0.465 1 2 cbr 500 ------- 0 1.0 3.0 53 126
+ 0.465 0 2 cbr 500 ------- 0 0.0 3.0 73 127
- 0.465 0 2 cbr 500 ------- 0 0.0 3.0 73 127
r 0.46502 0 2 cbr 500 ------- 0 0.0 3.0 71 123
+ 0.46502 2 3 cbr 500 ------- 0 0.0 3.0 71 123
- 0.46502 2 3 cbr 500 ------- 0 0.0 3.0 64 109
r 0.46504 1 2 cbr 500 ------- 0 1.0 3.0 52 124
+ 0.46504 2 3 cbr 500 ------- 0 1.0 3.0 52 124
- 0.46902 2 3 cbr 500 ------- 0 0.0 3.0 65 111
+ 0.47 1 2 cbr 500 ------- 0 1.0 3.0 54 128
- 0.47 1 2 cbr 500 ------- 0 1.0 3.0 54 128
+ 0.47 0 2 cbr 500 ------- 0 0.0 3.0 74 129
- 0.47 0 2 cbr 500 ------- 0 0.0 3.0 74 129
r 0.47002 0 2 cbr 500 ------- 0 0.0 3.0 72 125
+ 0.47002 2 3 cbr 500 ------- 0 0.0 3.0 72 125
r 0.47004 1 2 cbr 500 ------- 0 1.0 3.0 53 126
+ 0.47004 2 3 cbr 500 ------- 0 1.0 3.0 53 126
d 0.47004 2 3 cbr 500 ------- 0 1.0 3.0 53 126
- 0.47302 2 3 cbr 500 ------- 0 0.0 3.0 66 113
+ 0.475 1 2 cbr 500 ------- 0 1.0 3.0 55 130
- 0.475 1 2 cbr 500 ------- 0 1.0 3.0 55 130
+ 0.475 0 2 cbr 500 ------- 0 0.0 3.0 75 131
- 0.475 0 2 cbr 500 ------- 0 0.0 3.0 75 131
r 0.47502 0 2 cbr 500 ------- 0 0.0 3.0 73 127
+ 0.47502 2 3 cbr 500 ------- 0 0.0 3.0 73 127
r 0.47504 1 2 cbr 500 ------- 0 1.0 3.0 54 128
+ 0.47504 2 3 cbr 500 ------- 0 1.0 3.0 54 128
d 0.47504 2 3 cbr 500 ------- 0 1.0 3.0 54 128
- 0.47702 2 3 cbr 500 ------- 0 0.0 3.0 67 115
+ 0.48 1 2 cbr 500 ------- 0 1.0 3.0 56 132
- 0.48 1 2 cbr 500 ------- 0 1.0 3.0 56 132
+ 0.48 0 2 cbr 500 ------- 0 0.0 3.0 76 133
- 0.48 0 2 cbr 500 ------- 0 0.0 3.0 76 133
r 0.48002 0 2 cbr 500 ------- 0 0.0 3.0 74 129
+ 0.48002 2 3 cbr 500 ------- 0 0.0 3.0 74 129
r 0.48004 1 2 cbr 500 ------- 0 1.0 3.0 55 130
+ 0.48004 2 3 cbr 500 ------- 0 1.0 3.0 55 130
d 0.48004 2 3 cbr 500 ------- 0 1.0 3.0 55 130
- 0.48102 2 3 cbr 500 ------- 0 1.0 3.0 48 116
+ 0.485 1 2 cbr 500 ------- 0 1.0 3.0 57 134
- 0.485 1 2 cbr 500 ------- 0 1.0 3.0 57 134
+ 0.485 0 2 cbr 500 ------- 0 0.0 3.0 77 135
- 0.485 0 2 cbr 500 ------- 0 0.0 3.0 77 135
r 0.48502 0 2 cbr 500 ------- 0 0.0 3.0 75 131
+ 0.48502 2 3 cbr 500 ------- 0 0.0 3.0 75 131
- 0.48502 2 3 cbr 500 ------- 0 0.0 3.0 68 117
r 0.48504 1 2 cbr 500 ------- 0 1.0 3.0 56 132
+ 0.48504 2 3 cbr 500 ------- 0 1.0 3.0 56 132
- 0.48902 2 3 cbr 500 ------- 0 0.0 3.0 69 119
+ 0.49 1 2 cbr 500 ------- 0 1.0 3.0 58 136
- 0.49 1 2 cbr 500 ------- 0 1.0 3.0 58 136
+ 0.49 0 2 cbr 500 ------- 0 0.0 3.0 78 137
- 0.49 0 2 cbr 500 ------- 0 0.0 3.0 78 137