V -t * -v 1.0a5 -a 0
A -t * -n 1 -p 0 -o 0x7fffffff -c 30 -a 1
A -t * -h 1 -m 1073741823 -s 0
n -t * -a 4 -s 4 -S UP -v circle -c black -i black
n -t * -a 0 -s 0 -S UP -v circle -c black -i black
n -t * -a 5 -s 5 -S UP -v circle -c black -i black
n -t * -a 1 -s 1 -S UP -v circle -c black -i black
n -t * -a 2 -s 2 -S UP -v circle -c black -i black
n -t * -a 3 -s 3 -S UP -v circle -c black -i black
l -t * -s 0 -d 1 -S UP -r 10000000 -D 0.001 -c black
l -t * -s 1 -d 2 -S UP -r 10000000 -D 0.001 -c black
l -t * -s 2 -d 3 -S UP -r 10000000 -D 0.001 -c black
l -t * -s 3 -d 4 -S UP -r 10000000 -D 0.001 -c black
l -t * -s 4 -d 5 -S UP -r 10000000 -D 0.001 -c black
l -t * -s 5 -d 0 -S UP -r 10000000 -D 0.001 -c black
+ -t 0.5 -s 0 -d 5 -p tcp -e 40 -c 1 -i 0 -a 1 -x {0.0 5.0 0 ------- null}
- -t 0.5 -s 0 -d 5 -p tcp -e 40 -c 1 -i 0 -a 1 -x {0.0 5.0 0 ------- null}
h -t 0.5 -s 0 -d 5 -p tcp -e 40 -c 1 -i 0 -a 1 -x {0.0 5.0 -1 ------- null}
r -t 0.501032 -s 0 -d 5 -p tcp -e 40 -c 1 -i 0 -a 1 -x {0.0 5.0 0 ------- null}
+ -t 0.501032 -s 5 -d 0 -p ack -e 40 -c 1 -i 1 -a 1 -x {5.0 0.0 0 ------- null}
- -t 0.501032 -s 5 -d 0 -p ack -e 40 -c 1 -i 1 -a 1 -x {5.0 0.0 0 ------- null}
h -t 0.501032 -s 5 -d 0 -p ack -e 40 -c 1 -i 1 -a 1 -x {5.0 0.0 -1 ------- null}
r -t 0.502064 -s 5 -d 0 -p ack -e 40 -c 1 -i 1 -a 1 -x {5.0 0.0 0 ------- null}
+ -t 0.502064 -s 0 -d 5 -p tcp -e 1040 -c 1 -i 2 -a 1 -x {0.0 5.0 1 ------- null}
- -t 0.502064 -s 0 -d 5 -p tcp -e 1040 -c 1 -i 2 -a 1 -x {0.0 5.0 1 ------- null}
h -t 0.502064 -s 0 -d 5 -p tcp -e 1040 -c 1 -i 2 -a 1 -x {0.0 5.0 -1 ------- null}
r -t 0.503896 -s 0 -d 5 -p tcp -e 1040 -c 1 -i 2 -a 1 -x {0.0 5.0 1 ------- null}
+ -t 0.503896 -s 5 -d 0 -p ack -e 40 -c 1 -i 3 -a 1 -x {5.0 0.0 1 ------- null}
- -t 0.503896 -s 5 -d 0 -p ack -e 40 -c 1 -i 3 -a 1 -x {5.0 0.0 1 ------- null}
h -t 0.503896 -s 5 -d 0 -p ack -e 40 -c 1 -i 3 -a 1 -x {5.0 0.0 -1 ------- null}
r -t 0.504928 -s 5 -d 0 -p ack -e 40 -c 1 -i 3 -a 1 -x {5.0 0.0 1 ------- null}
+ -t 0.505 -s 0 -d 5 -p tcp -e 1040 -c 1 -i 4 -a 1 -x {0.0 5.0 2 ------- null}
- -t 0.505 -s 0 -d 5 -p tcp -e 1040 -c 1 -i 4 -a 1 -x {0.0 5.0 2 ------- null}
h -t 0.505 -s 0 -d 5 -p tcp -e 1040 -c 1 -i 4 -a 1 -x {0.0 5.0 -1 ------- null}
r -t 0.506832 -s 0 -d 5 -p tcp -e 1040 -c 1 -i 4 -a 1 -x {0.0 5.0 2 ------- null}
+ -t 0.506832 -s 5 -d 0 -p ack -e 40 -c 1 -i 5 -a 1 -x {5.0 0.0 2 ------- null}
- -t 0.506832 -s 5 -d 0 -p ack -e 40 -c 1 -i 5 -a 1 -x {5.0 0.0 2 ------- null}
h -t 0.506832 -s 5 -d 0 -p ack -e 40 -c 1 -i 5 -a 1 -x {5.0 0.0 -1 ------- null}
r -t 0.507864 -s 5 -d 0 -p ack -e 40 -c 1 -i 5 -a 1 -x {5.0 0.0 2 ------- null}
+ -t 0.51 -s 0 -d 5 -p tcp -e 1040 -c 1 -i 6 -a 1 -x {0.0 5.0 3 ------- null}
- -t 0.51 -s 0 -d 5 -p tcp -e 1040 -c 1 -i 6 -a 1 -x {0.0 5.0 3 ------- null}
h -t 0.51 -s 0 -d 5 -p tcp -e 1040 -c 1 -i 6 -a 1 -x {0.0 5.0 -1 ------- null}
r -t 0.511832 -s 0 -d 5 -p tcp -e 1040 -c 1 -i 6 -a 1 -x {0.0 5.0 3 ------- null}
+ -t 0.511832 -s 5 -d 0 -p ack -e 40 -c 1 -i 7 -a 1 -x {5.0 0.0 3 ------- null}
- -t 0.511832 -s 5 -d 0 -p ack -e 40 -c 1 -i 7 -a 1 -x {5.0 0.0 3 ------- null}
h -t 0.511832 -s 5 -d 0 -p ack -e 40 -c 1 -i 7 -a 1 -x {5.0 0.0 -1 ------- null}
r -t 0.512864 -s 5 -d 0 -p ack -e 40 -c 1 -i 7 -a 1 -x {5.0 0.0 3 ------- null}
+ -t 0.515 -s 0 -d 5 -p tcp -e 1040 -c 1 -i 8 -a 1 -x {0.0 5.0 4 ------- null}
- -t 0.515 -s 0 -d 5 -p tcp -e 1040 -c 1 -i 8 -a 1 -x {0.0 5.0 4 ------- null}
h -t 0.515 -s 0 -d 5 -p tcp -e 1040 -c 1 -i 8 -a 1 -x {0.0 5.0 -1 ------- null}
r -t 0.516832 -s 0 -d 5 -p tcp -e 1040 -c 1 -i 8 -a 1 -x {0.0 5.0 4 ------- null}
+ -t 0.516832 -s 5 -d 0 -p ack -e 40 -c 1 -i 9 -a 1 -x {5.0 0.0 4 ------- null}
- -t 0.516832 -s 5 -d 0 -p ack -e 40 -c 1 -i 9 -a 1 -x {5.0 0.0 4 ------- null}
h -t 0.516832 -s 5 -d 0 -p ack -e 40 -c 1 -i 9 -a 1 -x {5.0 0.0 -1 ------- null}
r -t 0.517864 -s 5 -d 0 -p ack -e 40 -c 1 -i 9 -a 1 -x {5.0 0.0 4 ------- null}
+ -t 0.52 -s 0 -d 5 -p tcp -e 1040 -c 1 -i 10 -a 1 -x {0.0 5.0 5 ------- null}
- -t 0.52 -s 0 -d 5 -p tcp -e 1040 -c 1 -i 10 -a 1 -x {0.0 5.0 5 ------- null}
h -t 0.52 -s 0 -d 5 -p tcp -e 1040 -c 1 -i 10 -a 1 -x {0.0 5.0 -1 ------- null}
r -t 0.521832 -s 0 -d 5 -p tcp -e 1040 -c 1 -i 10 -a 1 -x {0.0 5.0 5 ------- null}
+ -t 0.521832 -s 5 -d 0 -p ack -e 40 -c 1 -i 11 -a 1 -x {5.0 0.0 5 ------- null}
- -t 0.521832 -s 5 -d 0 -p ack -e 40 -c 1 -i 11 -a 1 -x {5.0 0.0 5 ------- null}
h -t 0.521832 -s 5 -d 0 -p ack -e 40 -c 1 -i 11 -a 1 -x {5.0 0.0 -1 ------- null}
r -t 0.522864 -s 5 -d 0 -p ack -e 40 -c 1 -i 11 -a 1 -x {5.0 0.0 5 ------- null}
+ -t 0.525 -s 0 -d 5 -p tcp -e 1040 -c 1 -i 12 -a 1 -x {0.0 5.0 6 ------- null}
- -t 0.525 -s 0 -d 5 -p tcp -e 1040 -c 1 -i 12 -a 1 -x {0.0 5.0 6 ------- null}
h -t 0.525 -s 0 -d 5 -p tcp -e 1040 -c 1 -i 12 -a 1 -x {0.0 5.0 -1 ------- null}
r -t 0.526832 -s 0 -d 5 -p tcp -e 1040 -c 1 -i 12 -a 1 -x {0.0 5.0 6 ------- null}
+ -t 0.526832 -s 5 -d 0 -p ack -e 40 -c 1 -i 13 -a 1 -x {5.0 0.0 6 ------- null}
- -t 0.526832 -s 5 -d 0 -p ack -e 40 -c 1 -i 13 -a 1 -x {5.0 0.0 6 ------- null}
h -t 0.526832 -s 5 -d 0 -p ack -e 40 -c 1 -i 13 -a 1 -x {5.0 0.0 -1 ------- null}
r -t 0.527864 -s 5 -d 0 -p ack -e 40 -c 1 -i 13 -a 1 -x {5.0 0.0 6 ------- null}
+ -t 0.53 -s 0 -d 5 -p tcp -e 1040 -c 1 -i 14 -a 1 -x {0.0 5.0 7 ------- null}
- -t 0.53 -s 0 -d 5 -p tcp -e 1040 -c 1 -i 14 -a 1 -x {0.0 5.0 7 ------- null}
h -t 0.53 -s 0 -d 5 -p tcp -e 1040 -c 1 -i 14 -a 1 -x {0.0 5.0 -1 ------- null}
r -t 0.531832 -s 0 -d 5 -p tcp -e 1040 -c 1 -i 14 -a 1 -x {0.0 5.0 7 ------- null}
+ -t 0.531832 -s 5 -d 0 -p ack -e 40 -c 1 -i 15 -a 1 -x {5.0 0.0 7 ------- null}
- -t 0.531832 -s 5 -d 0 -p ack -e 40 -c 1 -i 15 -a 1 -x {5.0 0.0 7 ------- null}
h -t 0.531832 -s 5 -d 0 -p ack -e 40 -c 1 -i 15 -a 1 -x {5.0 0.0 -1 ------- null}
r -t 0.532864 -s 5 -d 0 -p ack -e 40 -c 1 -i 15 -a 1 -x {5.0 0.0 7 ------- null}
+ -t 0.535 -s 0 -d 5 -p tcp -e 1040 -c 1 -i 16 -a 1 -x {0.0 5.0 8 ------- null}
- -t 0.535 -s 0 -d 5 -p tcp -e 1040 -c 1 -i 16 -a 1 -x {0.0 5.0 8 ------- null}
h -t 0.535 -s 0 -d 5 -p tcp -e 1040 -c 1 -i 16 -a 1 -x {0.0 5.0 -1 ------- null}
r -t 0.536832 -s 0 -d 5 -p tcp -e 1040 -c 1 -i 16 -a 1 -x {0.0 5.0 8 ------- null}
+ -t 0.536832 -s 5 -d 0 -p ack -e 40 -c 1 -i 17 -a 1 -x {5.0 0.0 8 ------- null}
- -t 0.536832 -s 5 -d 0 -p ack -e 40 -c 1 -i 17 -a 1 -x {5.0 0.0 8 ------- null}
h -t 0.536832 -s 5 -d 0 -p ack -e 40 -c 1 -i 17 -a 1 -x {5.0 0.0 -1 ------- null}
r -t 0.537864 -s 5 -d 0 -p ack -e 40 -c 1 -i 17 -a 1 -x {5.0 0.0 8 ------- null}
+ -t 0.54 -s 0 -d 5 -p tcp -e 1040 -c 1 -i 18 -a 1 -x {0.0 5.0 9 ------- null}
- -t 0.54 -s 0 -d 5 -p tcp -e 1040 -c 1 -i 18 -a 1 -x {0.0 5.0 9 ------- null}
h -t 0.54 -s 0 -d 5 -p tcp -e 1040 -c 1 -i 18 -a 1 -x {0.0 5.0 -1 ------- null}
r -t 0.541832 -s 0 -d 5 -p tcp -e 1040 -c 1 -i 18 -a 1 -x {0.0 5.0 9 ------- null}
+ -t 0.541832 -s 5 -d 0 -p ack -e 40 -c 1 -i 19 -a 1 -x {5.0 0.0 9 ------- null}
- -t 0.541832 -s 5 -d 0 -p ack -e 40 -c 1 -i 19 -a 1 -x {5.0 0.0 9 ------- null}
h -t 0.541832 -s 5 -d 0 -p ack -e 40 -c 1 -i 19 -a 1 -x {5.0 0.0 -1 ------- null}
r -t 0.542864 -s 5 -d 0 -p ack -e 40 -c 1 -i 19 -a 1 -x {5.0 0.0 9 ------- null}
+ -t 0.545 -s 0 -d 5 -p tcp -e 1040 -c 1 -i 20 -a 1 -x {0.0 5.0 10 ------- null}
- -t 0.545 -s 0 -d 5 -p tcp -e 1040 -c 1 -i 20 -a 1 -x {0.0 5.0 10 ------- null}
h -t 0.545 -s 0 -d 5 -p tcp -e 1040 -c 1 -i 20 -a 1 -x {0.0 5.0 -1 ------- null}
r -t 0.546832 -s 0 -d 5 -p tcp -e 1040 -c 1 -i 20 -a 1 -x {0.0 5.0 10 ------- null}
+ -t 0.546832 -s 5 -d 0 -p ack -e 40 -c 1 -i 21 -a 1 -x {5.0 0.0 10 ------- null}
- -t 0.546832 -s 5 -d 0 -p ack -e 40 -c 1 -i 21 -a 1 -x {5.0 0.0 10 ------- null}
h -t 0.546832 -s 5 -d 0 -p ack -e 40 -c 1 -i 21 -a 1 -x {5.0 0.0 -1 ------- null}
r -t 0.547864 -s 5 -d 0 -p ack -e 40 -c 1 -i 21 -a 1 -x {5.0 0.0 10 ------- null}
+ -t 0.55 -s 0 -d 5 -p tcp -e 1040 -c 1 -i 22 -a 1 -x {0.0 5.0 11 ------- null}
- -t 0.55 -s 0 -d 5 -p tcp -e 1040 -c 1 -i 22 -a 1 -x {0.0 5.0 11 ------- null}
h -t 0.55 -s 0 -d 5 -p tcp -e 1040 -c 1 -i 22 -a 1 -x {0.0 5.0 -1 ------- null}
r -t 0.551832 -s 0 -d 5 -p tcp -e 1040 -c 1 -i 22 -a 1 -x {0.0 5.0 11 ------- null}
+ -t 0.551832 -s 5 -d 0 -p ack -e 40 -c 1 -i 23 -a 1 -x {5.0 0.0 11 ------- null}
- -t 0.551832 -s 5 -d 0 -p ack -e 40 -c 1 -i 23 -a 1 -x {5.0 0.0 11 ------- null}
h -t 0.551832 -s 5 -d 0 -p ack -e 40 -c 1 -i 23 -a 1 -x {5.0 0.0 -1 ------- null}
r -t 0.552864 -s 5 -d 0 -p ack -e 40 -c 1 -i 23 -a 1 -x {5.0 0.0 11 ------- null}
+ -t 0.555 -s 0 -d 5 -p tcp -e 1040 -c 1 -i 24 -a 1 -x {0.0 5.0 12 ------- null}
- -t 0.555 -s 0 -d 5 -p tcp -e 1040 -c 1 -i 24 -a 1 -x {0.0 5.0 12 ------- null}
h -t 0.555 -s 0 -d 5 -p tcp -e 1040 -c 1 -i 24 -a 1 -x {0.0 5.0 -1 ------- null}
r -t 0.556832 -s 0 -d 5 -p tcp -e 1040 -c 1 -i 24 -a 1 -x {0.0 5.0 12 ------- null}
+ -t 0.556832 -s 5 -d 0 -p ack -e 40 -c 1 -i 25 -a 1 -x {5.0 0.0 12 ------- null}
- -t 0.556832 -s 5 -d 0 -p ack -e 40 -c 1 -i 25 -a 1 -x {5.0 0.0 12 ------- null}
h -t 0.556832 -s 5 -d 0 -p ack -e 40 -c 1 -i 25 -a 1 -x {5.0 0.0 -1 ------- null}
r -t 0.557864 -s 5 -d 0 -p ack -e 40 -c 1 -i 25 -a 1 -x {5.0 0.0 12 ------- null}
+ -t 0.56 -s 0 -d 5 -p tcp -e 1040 -c 1 -i 26 -a 1 -x {0.0 5.0 13 ------- null}
- -t 0.56 -s 0 -d 5 -p tcp -e 1040 -c 1 -i 26 -a 1 -x {0.0 5.0 13 ------- null}
h -t 0.56 -s 0 -d 5 -p tcp -e 1040 -c 1 -i 26 -a 1 -x {0.0 5.0 -1 ------- null}
r -t 0.561832 -s 0 -d 5 -p tcp -e 1040 -c 1 -i 26 -a 1 -x {0.0 5.0 13 ------- null}
+ -t 0.561832 -s 5 -d 0 -p ack -e 40 -c 1 -i 27 -a 1 -x {5.0 0.0 13 ------- null}
- -t 0.561832 -s 5 -d 0 -p ack -e 40 -c 1 -i 27 -a 1 -x {5.0 0.0 13 ------- null}
h -t 0.561832 -s 5 -d 0 -p ack -e 40 -c 1 -i 27 -a 1 -x {5.0 0.0 -1 ------- null}
r -t 0.562864 -s 5 -d 0 -p ack -e 40 -c 1 -i 27 -a 1 -x {5.0 0.0 13 ------- null}
+ -t 0.565 -s 0 -d 5 -p tcp -e 1040 -c 1 -i 28 -a 1 -x {0.0 5.0 14 ------- null}
- -t 0.565 -s 0 -d 5 -p tcp -e 1040 -c 1 -i 28 -a 1 -x {0.0 5.0 14 ------- null}
h -t 0.565 -s 0 -d 5 -p tcp -e 1040 -c 1 -i 28 -a 1 -x {0.0 5.0 -1 ------- null}
r -t 0.566832 -s 0 -d 5 -p tcp -e 1040 -c 1 -i 28 -a 1 -x {0.0 5.0 14 ------- null}
+ -t 0.566832 -s 5 -d 0 -p ack -e 40 -c 1 -i 29 -a 1 -x {5.0 0.0 14 ------- null}
- -t 0.566832 -s 5 -d 0 -p ack -e 40 -c 1 -i 29 -a 1 -x {5.0 0.0 14 ------- null}
h -t 0.566832 -s 5 -d 0 -p ack -e 40 -c 1 -i 29 -a 1 -x {5.0 0.0 -1 ------- null}
r -t 0.567864 -s 5 -d 0 -p ack -e 40 -c 1 -i 29 -a 1 -x {5.0 0.0 14 ------- null}
+ -t 0.57 -s 0 -d 5 -p tcp -e 1040 -c 1 -i 30 -a 1 -x {0.0 5.0 15 ------- null}
- -t 0.57 -s 0 -d 5 -p tcp -e 1040 -c 1 -i 30 -a 1 -x {0.0 5.0 15 ------- null}
h -t 0.57 -s 0 -d 5 -p tcp -e 1040 -c 1 -i 30 -a 1 -x {0.0 5.0 -1 ------- null}
r -t 0.571832 -s 0 -d 5 -p tcp -e 1040 -c 1 -i 30 -a 1 -x {0.0 5.0 15 ------- null}
+ -t 0.571832 -s 5 -d 0 -p ack -e 40 -c 1 -i 31 -a 1 -x {5.0 0.0 15 ------- null}
- -t 0.571832 -s 5 -d 0 -p ack -e 40 -c 1 -i 31 -a 1 -x {5.0 0.0 15 ------- null}
h -t 0.571832 -s 5 -d 0 -p ack -e 40 -c 1 -i 31 -a 1 -x {5.0 0.0 -1 ------- null}
r -t 0.572864 -s 5 -d 0 -p ack -e 40 -c 1 -i 31 -a 1 -x {5.0 0.0 15 ------- null}
+ -t 0.575 -s 0 -d 5 -p tcp -e 1040 -c 1 -i 32 -a 1 -x {0.0 5.0 16 ------- null}
- -t 0.575 -s 0 -d 5 -p tcp -e 1040 -c 1 -i 32 -a 1 -x {0.0 5.0 16 ------- null}
h -t 0.575 -s 0 -d 5 -p tcp -e 1040 -c 1 -i 32 -a 1 -x {0.0 5.0 -1 ------- null}
r -t 0.576832 -s 0 -d 5 -p tcp -e 1040 -c 1 -i 32 -a 1 -x {0.0 5.0 16 ------- null}
+ -t 0.576832 -s 5 -d 0 -p ack -e 40 -c 1 -i 33 -a 1 -x {5.0 0.0 16 ------- null}
- -t 0.576832 -s 5 -d 0 -p ack -e 40 -c 1 -i 33 -a 1 -x {5.0 0.0 16 ------- null}
h -t 0.576832 -s 5 -d 0 -p ack -e 40 -c 1 -i 33 -a 1 -x {5.0 0.0 -1 ------- null}
r -t 0.577864 -s 5 -d 0 -p ack -e 40 -c 1 -i 33 -a 1 -x {5.0 0.0 16 ------- null}
+ -t 0.58 -s 0 -d 5 -p tcp -e 1040 -c 1 -i 34 -a 1 -x {0.0 5.0 17 ------- null}
- -t 0.58 -s 0 -d 5 -p tcp -e 1040 -c 1 -i 34 -a 1 -x {0.0 5.0 17 ------- null}
h -t 0.58 -s 0 -d 5 -p tcp -e 1040 -c 1 -i 34 -a 1 -x {0.0 5.0 -1 ------- null}
r -t 0.581832 -s 0 -d 5 -p tcp -e 1040 -c 1 -i 34 -a 1 -x {0.0 5.0 17 ------- null}
+ -t 0.581832 -s 5 -d 0 -p ack -e 40 -c 1 -i 35 -a 1 -x {5.0 0.0 17 ------- null}
- -t 0.581832 -s 5 -d 0 -p ack -e 40 -c 1 -i 35 -a 1 -x {5.0 0.0 17 ------- null}
h -t 0.581832 -s 5 -d 0 -p ack -e 40 -c 1 -i 35 -a 1 -x {5.0 0.0 -1 ------- null}
r -t 0.582864 -s 5 -d 0 -p ack -e 40 -c 1 -i 35 -a 1 -x {5.0 0.0 17 ------- null}
+ -t 0.585 -s 0 -d 5 -p tcp -e 1040 -c 1 -i 36 -a 1 -x {0.0 5.0 18 ------- null}
- -t 0.585 -s 0 -d 5 -p tcp -e 1040 -c 1 -i 36 -a 1 -x {0.0 5.0 18 ------- null}
h -t 0.585 -s 0 -d 5 -p tcp -e 1040 -c 1 -i 36 -a 1 -x {0.0 5.0 -1 ------- null}
r -t 0.586832 -s 0 -d 5 -p tcp -e 1040 -c 1 -i 36 -a 1 -x {0.0 5.0 18 ------- null}
+ -t 0.586832 -s 5 -d 0 -p ack -e 40 -c 1 -i 37 -a 1 -x {5.0 0.0 18 ------- null}
- -t 0.586832 -s 5 -d 0 -p ack -e 40 -c 1 -i 37 -a 1 -x {5.0 0.0 18 ------- null}
h -t 0.586832 -s 5 -d 0 -p ack -e 40 -c 1 -i 37 -a 1 -x {5.0 0.0 -1 ------- null}
r -t 0.587864 -s 5 -d 0 -p ack -e 40 -c 1 -i 37 -a 1 -x {5.0 0.0 18 ------- null}
+ -t 0.59 -s 0 -d 5 -p tcp -e 1040 -c 1 -i 38 -a 1 -x {0.0 5.0 19 ------- null}
- -t 0.59 -s 0 -d 5 -p tcp -e 1040 -c 1 -i 38 -a 1 -x {0.0 5.0 19 ------- null}
h -t 0.59 -s 0 -d 5 -p tcp -e 1040 -c 1 -i 38 -a 1 -x {0.0 5.0 -1 ------- null}
r -t 0.591832 -s 0 -d 5 -p tcp -e 1040 -c 1 -i 38 -a 1 -x {0.0 5.0 19 ------- null}
+ -t 0.591832 -s 5 -d 0 -p ack -e 40 -c 1 -i 39 -a 1 -x {5.0 0.0 19 ------- null}
- -t 0.591832 -s 5 -d 0 -p ack -e 40 -c 1 -i 39 -a 1 -x {5.0 0.0 19 ------- null}
h -t 0.591832 -s 5 -d 0 -p ack -e 40 -c 1 -i 39 -a 1 -x {5.0 0.0 -1 ------- null}
r -t 0.592864 -s 5 -d 0 -p ack -e 40 -c 1 -i 39 -a 1 -x {5.0 0.0 19 ------- null}
+ -t 0.595 -s 0 -d 5 -p tcp -e 1040 -c 1 -i 40 -a 1 -x {0.0 5.0 20 ------- null}
- -t 0.595 -s 0 -d 5 -p tcp -e 1040 -c 1 -i 40 -a 1 -x {0.0 5.0 20 ------- null}
h -t 0.595 -s 0 -d 5 -p tcp -e 1040 -c 1 -i 40 -a 1 -x {0.0 5.0 -1 ------- null}
r -t 0.596832 -s 0 -d 5 -p tcp -e 1040 -c 1 -i 40 -a 1 -x {0.0 5.0 20 ------- null}
+ -t 0.596832 -s 5 -d 0 -p ack -e 40 -c 1 -i 41 -a 1 -x {5.0 0.0 20 ------- null}
- -t 0.596832 -s 5 -d 0 -p ack -e 40 -c 1 -i 41 -a 1 -x {5.0 0.0 20 ------- null}
h -t 0.596832 -s 5 -d 0 -p ack -e 40 -c 1 -i 41 -a 1 -x {5.0 0.0 -1 ------- null}
r -t 0.597864 -s 5 -d 0 -p ack -e 40 -c 1 -i 41 -a 1 -x {5.0 0.0 20 ------- null}
+ -t 0.6 -s 0 -d 5 -p tcp -e 1040 -c 1 -i 42 -a 1 -x {0.0 5.0 21 ------- null}
- -t 0.6 -s 0 -d 5 -p tcp -e 1040 -c 1 -i 42 -a 1 -x {0.0 5.0 21 ------- null}
h -t 0.6 -s 0 -d 5 -p tcp -e 1040 -c 1 -i 42 -a 1 -x {0.0 5.0 -1 ------- null}
r -t 0.601832 -s 0 -d 5 -p tcp -e 1040 -c 1 -i 42 -a 1 -x {0.0 5.0 21 ------- null}
+ -t 0.601832 -s 5 -d 0 -p ack -e 40 -c 1 -i 43 -a 1 -x {5.0 0.0 21 ------- null}
- -t 0.601832 -s 5 -d 0 -p ack -e 40 -c 1 -i 43 -a 1 -x {5.0 0.0 21 ------- null}
h -t 0.601832 -s 5 -d 0 -p ack -e 40 -c 1 -i 43 -a 1 -x {5.0 0.0 -1 ------- null}
r -t 0.602864 -s 5 -d 0 -p ack -e 40 -c 1 -i 43 -a 1 -x {5.0 0.0 21 ------- null}
+ -t 0.605 -s 0 -d 5 -p tcp -e 1040 -c 1 -i 44 -a 1 -x {0.0 5.0 22 ------- null}
- -t 0.605 -s 0 -d 5 -p tcp -e 1040 -c 1 -i 44 -a 1 -x {0.0 5.0 22 ------- null}
h -t 0.605 -s 0 -d 5 -p tcp -e 1040 -c 1 -i 44 -a 1 -x {0.0 5.0 -1 ------- null}
r -t 0.606832 -s 0 -d 5 -p tcp -e 1040 -c 1 -i 44 -a 1 -x {0.0 5.0 22 ------- null}
+ -t 0.606832 -s 5 -d 0 -p ack -e 40 -c 1 -i 45 -a 1 -x {5.0 0.0 22 ------- null}
- -t 0.606832 -s 5 -d 0 -p ack -e 40 -c 1 -i 45 -a 1 -x {5.0 0.0 22 ------- null}
h -t 0.606832 -s 5 -d 0 -p ack -e 40 -c 1 -i 45 -a 1 -x {5.0 0.0 -1 ------- null}
r -t 0.607864 -s 5 -d 0 -p ack -e 40 -c 1 -i 45 -a 1 -x {5.0 0.0 22 ------- null}
+ -t 0.61 -s 0 -d 5 -p tcp -e 1040 -c 1 -i 46 -a 1 -x {0.0 5.0 23 ------- null}
- -t 0.61 -s 0 -d 5 -p tcp -e 1040 -c 1 -i 46 -a 1 -x {0.0 5.0 23 ------- null}
h -t 0.61 -s 0 -d 5 -p tcp -e 1040 -c 1 -i 46 -a 1 -x {0.0 5.0 -1 ------- null}
r -t 0.611832 -s 0 -d 5 -p tcp -e 1040 -c 1 -i 46 -a 1 -x {0.0 5.0 23 ------- null}
+ -t 0.611832 -s 5 -d 0 -p ack -e 40 -c 1 -i 47 -a 1 -x {5.0 0.0 23 ------- null}
- -t 0.611832 -s 5 -d 0 -p ack -e 40 -c 1 -i 47 -a 1 -x {5.0 0.0 23 ------- null}
h -t 0.611832 -s 5 -d 0 -p ack -e 40 -c 1 -i 47 -a 1 -x {5.0 0.0 -1 ------- null}
r -t 0.612864 -s 5 -d 0 -p ack -e 40 -c 1 -i 47 -a 1 -x {5.0 0.0 23 ------- null}
+ -t 0.615 -s 0 -d 5 -p tcp -e 1040 -c 1 -i 48 -a 1 -x {0.0 5.0 24 ------- null}
- -t 0.615 -s 0 -d 5 -p tcp -e 1040 -c 1 -i 48 -a 1 -x {0.0 5.0 24 ------- null}
h -t 0.615 -s 0 -d 5 -p tcp -e 1040 -c 1 -i 48 -a 1 -x {0.0 5.0 -1 ------- null}
r -t 0.616832 -s 0 -d 5 -p tcp -e 1040 -c 1 -i 48 -a 1 -x {0.0 5.0 24 ------- null}
+ -t 0.616832 -s 5 -d 0 -p ack -e 40 -c 1 -i 49 -a 1 -x {5.0 0.0 24 ------- null}
- -t 0.616832 -s 5 -d 0 -p ack -e 40 -c 1 -i 49 -a 1 -x {5.0 0.0 24 ------- null}
h -t 0.616832 -s 5 -d 0 -p ack -e 40 -c 1 -i 49 -a 1 -x {5.0 0.0 -1 ------- null}
r -t 0.617864 -s 5 -d 0 -p ack -e 40 -c 1 -i 49 -a 1 -x {5.0 0.0 24 ------- null}
+ -t 0.62 -s 0 -d 5 -p tcp -e 1040 -c 1 -i 50 -a 1 -x {0.0 5.0 25 ------- null}
- -t 0.62 -s 0 -d 5 -p tcp -e 1040 -c 1 -i 50 -a 1 -x {0.0 5.0 25 ------- null}
h -t 0.62 -s 0 -d 5 -p tcp -e 1040 -c 1 -i 50 -a 1 -x {0.0 5.0 -1 ------- null}
r -t 0.621832 -s 0 -d 5 -p tcp -e 1040 -c 1 -i 50 -a 1 -x {0.0 5.0 25 ------- null}
+ -t 0.621832 -s 5 -d 0 -p ack -e 40 -c 1 -i 51 -a 1 -x {5.0 0.0 25 ------- null}
- -t 0.621832 -s 5 -d 0 -p ack -e 40 -c 1 -i 51 -a 1 -x {5.0 0.0 25 ------- null}
h -t 0.621832 -s 5 -d 0 -p ack -e 40 -c 1 -i 51 -a 1 -x {5.0 0.0 -1 ------- null}
r -t 0.622864 -s 5 -d 0 -p ack -e 40 -c 1 -i 51 -a 1 -x {5.0 0.0 25 ------- null}
+ -t 0.625 -s 0 -d 5 -p tcp -e 1040 -c 1 -i 52 -a 1 -x {0.0 5.0 26 ------- null}
- -t 0.625 -s 0 -d 5 -p tcp -e 1040 -c 1 -i 52 -a 1 -x {0.0 5.0 26 ------- null}
h -t 0.625 -s 0 -d 5 -p tcp -e 1040 -c 1 -i 52 -a 1 -x {0.0 5.0 -1 ------- null}
r -t 0.626832 -s 0 -d 5 -p tcp -e 1040 -c 1 -i 52 -a 1 -x {0.0 5.0 26 ------- null}
+ -t 0.626832 -s 5 -d 0 -p ack -e 40 -c 1 -i 53 -a 1 -x {5.0 0.0 26 ------- null}
- -t 0.626832 -s 5 -d 0 -p ack -e 40 -c 1 -i 53 -a 1 -x {5.0 0.0 26 ------- null}
h -t 0.626832 -s 5 -d 0 -p ack -e 40 -c 1 -i 53 -a 1 -x {5.0 0.0 -1 ------- null}
r -t 0.627864 -s 5 -d 0 -p ack -e 40 -c 1 -i 53 -a 1 -x {5.0 0.0 26 ------- null}
+ -t 0.63 -s 0 -d 5 -p tcp -e 1040 -c 1 -i 54 -a 1 -x {0.0 5.0 27 ------- null}
- -t 0.63 -s 0 -d 5 -p tcp -e 1040 -c 1 -i 54 -a 1 -x {0.0 5.0 27 ------- null}
h -t 0.63 -s 0 -d 5 -p tcp -e 1040 -c 1 -i 54 -a 1 -x {0.0 5.0 -1 ------- null}
r -t 0.631832 -s 0 -d 5 -p tcp -e 1040 -c 1 -i 54 -a 1 -x {0.0 5.0 27 ------- null}
+ -t 0.631832 -s 5 -d 0 -p ack -e 40 -c 1 -i 55 -a 1 -x {5.0 0.0 27 ------- null}
- -t 0.631832 -s 5 -d 0 -p ack -e 40 -c 1 -i 55 -a 1 -x {5.0 0.0 27 ------- null}
h -t 0.631832 -s 5 -d 0 -p ack -e 40 -c 1 -i 55 -a 1 -x {5.0 0.0 -1 ------- null}
r -t 0.632864 -s 5 -d 0 -p ack -e 40 -c 1 -i 55 -a 1 -x {5.0 0.0 27 ------- null}
+ -t 0.635 -s 0 -d 5 -p tcp -e 1040 -c 1 -i 56 -a 1 -x {0.0 5.0 28 ------- null}
- -t 0.635 -s 0 -d 5 -p tcp -e 1040 -c 1 -i 56 -a 1 -x {0.0 5.0 28 ------- null}
h -t 0.635 -s 0 -d 5 -p tcp -e 1040 -c 1 -i 56 -a 1 -x {0.0 5.0 -1 ------- null}
r -t 0.636832 -s 0 -d 5 -p tcp -e 1040 -c 1 -i 56 -a 1 -x {0.0 5.0 28 ------- null}
+ -t 0.636832 -s 5 -d 0 -p ack -e 40 -c 1 -i 57 -a 1 -x {5.0 0.0 28 ------- null}
- -t 0.636832 -s 5 -d 0 -p ack -e 40 -c 1 -i 57 -a 1 -x {5.0 0.0 28 ------- null}
h -t 0.636832 -s 5 -d 0 -p ack -e 40 -c 1 -i 57 -a 1 -x {5.0 0.0 -1 ------- null}
r -t 0.637864 -s 5 -d 0 -p ack -e 40 -c 1 -i 57 -a 1 -x {5.0 0.0 28 ------- null}
+ -t 0.64 -s 0 -d 5 -p tcp -e 1040 -c 1 -i 58 -a 1 -x {0.0 5.0 29 ------- null}
- -t 0.64 -s 0 -d 5 -p tcp -e 1040 -c 1 -i 58 -a 1 -x {0.0 5.0 29 ------- null}
h -t 0.64 -s 0 -d 5 -p tcp -e 1040 -c 1 -i 58 -a 1 -x {0.0 5.0 -1 ------- null}
r -t 0.641832 -s 0 -d 5 -p tcp -e 1040 -c 1 -i 58 -a 1 -x {0.0 5.0 29 ------- null}
+ -t 0.641832 -s 5 -d 0 -p ack -e 40 -c 1 -i 59 -a 1 -x {5.0 0.0 29 ------- null}
- -t 0.641832 -s 5 -d 0 -p ack -e 40 -c 1 -i 59 -a 1 -x {5.0 0.0 29 ------- null}
h -t 0.641832 -s 5 -d 0 -p ack -e 40 -c 1 -i 59 -a 1 -x {5.0 0.0 -1 ------- null}
r -t 0.642864 -s 5 -d 0 -p ack -e 40 -c 1 -i 59 -a 1 -x {5.0 0.0 29 ------- null}
+ -t 0.645 -s 0 -d 5 -p tcp -e 1040 -c 1 -i 60 -a 1 -x {0.0 5.0 30 ------- null}
- -t 0.645 -s 0 -d 5 -p tcp -e 1040 -c 1 -i 60 -a 1 -x {0.0 5.0 30 ------- null}
h -t 0.645 -s 0 -d 5 -p tcp -e 1040 -c 1 -i 60 -a 1 -x {0.0 5.0 -1 ------- null}
r -t 0.646832 -s 0 -d 5 -p tcp -e 1040 -c 1 -i 60 -a 1 -x {0.0 5.0 30 ------- null}
+ -t 0.646832 -s 5 -d 0 -p ack -e 40 -c 1 -i 61 -a 1 -x {5.0 0.0 30 ------- null}
- -t 0.646832 -s 5 -d 0 -p ack -e 40 -c 1 -i 61 -a 1 -x {5.0 0.0 30 ------- null}
h -t 0.646832 -s 5 -d 0 -p ack -e 40 -c 1 -i 61 -a 1 -x {5.0 0.0 -1 ------- null}
r -t 0.647864 -s 5 -d 0 -p ack -e 40 -c 1 -i 61 -a 1 -x {5.0 0.0 30 ------- null}
+ -t 0.65 -s 0 -d 5 -p tcp -e 1040 -c 1 -i 62 -a 1 -x {0.0 5.0 31 ------- null}
- -t 0.65 -s 0 -d 5 -p tcp -e 1040 -c 1 -i 62 -a 1 -x {0.0 5.0 31 ------- null}
h -t 0.65 -s 0 -d 5 -p tcp -e 1040 -c 1 -i 62 -a 1 -x {0.0 5.0 -1 ------- null}
r -t 0.651832 -s 0 -d 5 -p tcp -e 1040 -c 1 -i 62 -a 1 -x {0.0 5.0 31 ------- null}
+ -t 0.651832 -s 5 -d 0 -p ack -e 40 -c 1 -i 63 -a 1 -x {5.0 0.0 31 ------- null}
- -t 0.651832 -s 5 -d 0 -p ack -e 40 -c 1 -i 63 -a 1 -x {5.0 0.0 31 ------- null}
h -t 0.651832 -s 5 -d 0 -p ack -e 40 -c 1 -i 63 -a 1 -x {5.0 0.0 -1 ------- null}
r -t 0.652864 -s 5 -d 0 -p ack -e 40 -c 1 -i 63 -a 1 -x {5.0 0.0 31 ------- null}
+ -t 0.655 -s 0 -d 5 -p tcp -e 1040 -c 1 -i 64 -a 1 -x {0.0 5.0 32 ------- null}
- -t 0.655 -s 0 -d 5 -p tcp -e 1040 -c 1 -i 64 -a 1 -x {0.0 5.0 32 ------- null}
h -t 0.655 -s 0 -d 5 -p tcp -e 1040 -c 1 -i 64 -a 1 -x {0.0 5.0 -1 ------- null}
r -t 0.656832 -s 0 -d 5 -p tcp -e 1040 -c 1 -i 64 -a 1 -x {0.0 5.0 32 ------- null}
+ -t 0.656832 -s 5 -d 0 -p ack -e 40 -c 1 -i 65 -a 1 -x {5.0 0.0 32 ------- null}
- -t 0.656832 -s 5 -d 0 -p ack -e 40 -c 1 -i 65 -a 1 -x {5.0 0.0 32 ------- null}
h -t 0.656832 -s 5 -d 0 -p ack -e 40 -c 1 -i 65 -a 1 -x {5.0 0.0 -1 ------- null}
r -t 0.657864 -s 5 -d 0 -p ack -e 40 -c 1 -i 65 -a 1 -x {5.0 0.0 32 ------- null}
+ -t 0.66 -s 0 -d 5 -p tcp -e 1040 -c 1 -i 66 -a 1 -x {0.0 5.0 33 ------- null}
- -t 0.66 -s 0 -d 5 -p tcp -e 1040 -c 1 -i 66 -a 1 -x {0.0 5.0 33 ------- null}
h -t 0.66 -s 0 -d 5 -p tcp -e 1040 -c 1 -i 66 -a 1 -x {0.0 5.0 -1 ------- null}
r -t 0.661832 -s 0 -d 5 -p tcp -e 1040 -c 1 -i 66 -a 1 -x {0.0 5.0 33 ------- null}
+ -t 0.661832 -s 5 -d 0 -p ack -e 40 -c 1 -i 67 -a 1 -x {5.0 0.0 33 ------- null}
- -t 0.661832 -s 5 -d 0 -p ack -e 40 -c 1 -i 67 -a 1 -x {5.0 0.0 33 ------- null}
h -t 0.661832 -s 5 -d 0 -p ack -e 40 -c 1 -i 67 -a 1 -x {5.0 0.0 -1 ------- null}
r -t 0.662864 -s 5 -d 0 -p ack -e 40 -c 1 -i 67 -a 1 -x {5.0 0.0 33 ------- null}
+ -t 0.665 -s 0 -d 5 -p tcp -e 1040 -c 1 -i 68 -a 1 -x {0.0 5.0 34 ------- null}
- -t 0.665 -s 0 -d 5 -p tcp -e 1040 -c 1 -i 68 -a 1 -x {0.0 5.0 34 ------- null}
h -t 0.665 -s 0 -d 5 -p tcp -e 1040 -c 1 -i 68 -a 1 -x {0.0 5.0 -1 ------- null}
r -t 0.666832 -s 0 -d 5 -p tcp -e 1040 -c 1 -i 68 -a 1 -x {0.0 5.0 34 ------- null}
+ -t 0.666832 -s 5 -d 0 -p ack -e 40 -c 1 -i 69 -a 1 -x {5.0 0.0 34 ------- null}
- -t 0.666832 -s 5 -d 0 -p ack -e 40 -c 1 -i 69 -a 1 -x {5.0 0.0 34 ------- null}
h -t 0.666832 -s 5 -d 0 -p ack -e 40 -c 1 -i 69 -a 1 -x {5.0 0.0 -1 ------- null}
r -t 0.667864 -s 5 -d 0 -p ack -e 40 -c 1 -i 69 -a 1 -x {5.0 0.0 34 ------- null}
+ -t 0.67 -s 0 -d 5 -p tcp -e 1040 -c 1 -i 70 -a 1 -x {0.0 5.0 35 ------- null}
- -t 0.67 -s 0 -d 5 -p tcp -e 1040 -c 1 -i 70 -a 1 -x {0.0 5.0 35 ------- null}
h -t 0.67 -s 0 -d 5 -p tcp -e 1040 -c 1 -i 70 -a 1 -x {0.0 5.0 -1 ------- null}
r -t 0.671832 -s 0 -d 5 -p tcp -e 1040 -c 1 -i 70 -a 1 -x {0.0 5.0 35 ------- null}
+ -t 0.671832 -s 5 -d 0 -p ack -e 40 -c 1 -i 71 -a 1 -x {5.0 0.0 35 ------- null}
- -t 0.671832 -s 5 -d 0 -p ack -e 40 -c 1 -i 71 -a 1 -x {5.0 0.0 35 ------- null}
h -t 0.671832 -s 5 -d 0 -p ack -e 40 -c 1 -i 71 -a 1 -x {5.0 0.0 -1 ------- null}
r -t 0.672864 -s 5 -d 0 -p ack -e 40 -c 1 -i 71 -a 1 -x {5.0 0.0 35 ------- null}
+ -t 0.675 -s 0 -d 5 -p tcp -e 1040 -c 1 -i 72 -a 1 -x {0.0 5.0 36 ------- null}
- -t 0.675 -s 0 -d 5 -p tcp -e 1040 -c 1 -i 72 -a 1 -x {0.0 5.0 36 ------- null}
h -t 0.675 -s 0 -d 5 -p tcp -e 1040 -c 1 -i 72 -a 1 -x {0.0 5.0 -1 ------- null}
r -t 0.676832 -s 0 -d 5 -p tcp -e 1040 -c 1 -i 72 -a 1 -x {0.0 5.0 36 ------- null}
+ -t 0.676832 -s 5 -d 0 -p ack -e 40 -c 1 -i 73 -a 1 -x {5.0 0.0 36 ------- null}
- -t 0.676832 -s 5 -d 0 -p ack -e 40 -c 1 -i 73 -a 1 -x {5.0 0.0 36 ------- null}
h -t 0.676832 -s 5 -d 0 -p ack -e 40 -c 1 -i 73 -a 1 -x {5.0 0.0 -1 ------- null}
r -t 0.677864 -s 5 -d 0 -p ack -e 40 -c 1 -i 73 -a 1 -x {5.0 0.0 36 ------- null}
+ -t 0.68 -s 0 -d 5 -p tcp -e 1040 -c 1 -i 74 -a 1 -x {0.0 5.0 37 ------- null}
- -t 0.68 -s 0 -d 5 -p tcp -e 1040 -c 1 -i 74 -a 1 -x {0.0 5.0 37 ------- null}
h -t 0.68 -s 0 -d 5 -p tcp -e 1040 -c 1 -i 74 -a 1 -x {0.0 5.0 -1 ------- null}
r -t 0.681832 -s 0 -d 5 -p tcp -e 1040 -c 1 -i 74 -a 1 -x {0.0 5.0 37 ------- null}
+ -t 0.681832 -s 5 -d 0 -p ack -e 40 -c 1 -i 75 -a 1 -x {5.0 0.0 37 ------- null}
- -t 0.681832 -s 5 -d 0 -p ack -e 40 -c 1 -i 75 -a 1 -x {5.0 0.0 37 ------- null}
h -t 0.681832 -s 5 -d 0 -p ack -e 40 -c 1 -i 75 -a 1 -x {5.0 0.0 -1 ------- null}
r -t 0.682864 -s 5 -d 0 -p ack -e 40 -c 1 -i 75 -a 1 -x {5.0 0.0 37 ------- null}
+ -t 0.685 -s 0 -d 5 -p tcp -e 1040 -c 1 -i 76 -a 1 -x {0.0 5.0 38 ------- null}
- -t 0.685 -s 0 -d 5 -p tcp -e 1040 -c 1 -i 76 -a 1 -x {0.0 5.0 38 ------- null}
h -t 0.685 -s 0 -d 5 -p tcp -e 1040 -c 1 -i 76 -a 1 -x {0.0 5.0 -1 ------- null}
r -t 0.686832 -s 0 -d 5 -p tcp -e 1040 -c 1 -i 76 -a 1 -x {0.0 5.0 38 ------- null}
+ -t 0.686832 -s 5 -d 0 -p ack -e 40 -c 1 -i 77 -a 1 -x {5.0 0.0 38 ------- null}
- -t 0.686832 -s 5 -d 0 -p ack -e 40 -c 1 -i 77 -a 1 -x {5.0 0.0 38 ------- null}
h -t 0.686832 -s 5 -d 0 -p ack -e 40 -c 1 -i 77 -a 1 -x {5.0 0.0 -1 ------- null}
r -t 0.687864 -s 5 -d 0 -p ack -e 40 -c 1 -i 77 -a 1 -x {5.0 0.0 38 ------- null}
+ -t 0.69 -s 0 -d 5 -p tcp -e 1040 -c 1 -i 78 -a 1 -x {0.0 5.0 39 ------- null}
- -t 0.69 -s 0 -d 5 -p tcp -e 1040 -c 1 -i 78 -a 1 -x {0.0 5.0 39 ------- null}
h -t 0.69 -s 0 -d 5 -p tcp -e 1040 -c 1 -i 78 -a 1 -x {0.0 5.0 -1 ------- null}
r -t 0.691832 -s 0 -d 5 -p tcp -e 1040 -c 1 -i 78 -a 1 -x {0.0 5.0 39 ------- null}
+ -t 0.691832 -s 5 -d 0 -p ack -e 40 -c 1 -i 79 -a 1 -x {5.0 0.0 39 ------- null}
- -t 0.691832 -s 5 -d 0 -p ack -e 40 -c 1 -i 79 -a 1 -x {5.0 0.0 39 ------- null}
h -t 0.691832 -s 5 -d 0 -p ack -e 40 -c 1 -i 79 -a 1 -x {5.0 0.0 -1 ------- null}
r -t 0.692864 -s 5 -d 0 -p ack -e 40 -c 1 -i 79 -a 1 -x {5.0 0.0 39 ------- null}
+ -t 0.695 -s 0 -d 5 -p tcp -e 1040 -c 1 -i 80 -a 1 -x {0.0 5.0 40 ------- null}
- -t 0.695 -s 0 -d 5 -p tcp -e 1040 -c 1 -i 80 -a 1 -x {0.0 5.0 40 ------- null}
h -t 0.695 -s 0 -d 5 -p tcp -e 1040 -c 1 -i 80 -a 1 -x {0.0 5.0 -1 ------- null}
r -t 0.696832 -s 0 -d 5 -p tcp -e 1040 -c 1 -i 80 -a 1 -x {0.0 5.0 40 ------- null}
+ -t 0.696832 -s 5 -d 0 -p ack -e 40 -c 1 -i 81 -a 1 -x {5.0 0.0 40 ------- null}
- -t 0.696832 -s 5 -d 0 -p ack -e 40 -c 1 -i 81 -a 1 -x {5.0 0.0 40 ------- null}
h -t 0.696832 -s 5 -d 0 -p ack -e 40 -c 1 -i 81 -a 1 -x {5.0 0.0 -1 ------- null}
r -t 0.697864 -s 5 -d 0 -p ack -e 40 -c 1 -i 81 -a 1 -x {5.0 0.0 40 ------- null}
+ -t 0.7 -s 0 -d 5 -p tcp -e 1040 -c 1 -i 82 -a 1 -x {0.0 5.0 41 ------- null}
- -t 0.7 -s 0 -d 5 -p tcp -e 1040 -c 1 -i 82 -a 1 -x {0.0 5.0 41 ------- null}
h -t 0.7 -s 0 -d 5 -p tcp -e 1040 -c 1 -i 82 -a 1 -x {0.0 5.0 -1 ------- null}
r -t 0.701832 -s 0 -d 5 -p tcp -e 1040 -c 1 -i 82 -a 1 -x {0.0 5.0 41 ------- null}
+ -t 0.701832 -s 5 -d 0 -p ack -e 40 -c 1 -i 83 -a 1 -x {5.0 0.0 41 ------- null}
- -t 0.701832 -s 5 -d 0 -p ack -e 40 -c 1 -i 83 -a 1 -x {5.0 0.0 41 ------- null}
h -t 0.701832 -s 5 -d 0 -p ack -e 40 -c 1 -i 83 -a 1 -x {5.0 0.0 -1 ------- null}
r -t 0.702864 -s 5 -d 0 -p ack -e 40 -c 1 -i 83 -a 1 -x {5.0 0.0 41 ------- null}
+ -t 0.705 -s 0 -d 5 -p tcp -e 1040 -c 1 -i 84 -a 1 -x {0.0 5.0 42 ------- null}
- -t 0.705 -s 0 -d 5 -p tcp -e 1040 -c 1 -i 84 -a 1 -x {0.0 5.0 42 ------- null}
h -t 0.705 -s 0 -d 5 -p tcp -e 1040 -c 1 -i 84 -a 1 -x {0.0 5.0 -1 ------- null}
r -t 0.706832 -s 0 -d 5 -p tcp -e 1040 -c 1 -i 84 -a 1 -x {0.0 5.0 42 ------- null}
+ -t 0.706832 -s 5 -d 0 -p ack -e 40 -c 1 -i 85 -a 1 -x {5.0 0.0 42 ------- null}
- -t 0.706832 -s 5 -d 0 -p ack -e 40 -c 1 -i 85 -a 1 -x {5.0 0.0 42 ------- null}
h -t 0.706832 -s 5 -d 0 -p ack -e 40 -c 1 -i 85 -a 1 -x {5.0 0.0 -1 ------- null}
r -t 0.707864 -s 5 -d 0 -p ack -e 40 -c 1 -i 85 -a 1 -x {5.0 0.0 42 ------- null}
+ -t 0.71 -s 0 -d 5 -p tcp -e 1040 -c 1 -i 86 -a 1 -x {0.0 5.0 43 ------- null}
- -t 0.71 -s 0 -d 5 -p tcp -e 1040 -c 1 -i 86 -a 1 -x {0.0 5.0 43 ------- null}
h -t 0.71 -s 0 -d 5 -p tcp -e 1040 -c 1 -i 86 -a 1 -x {0.0 5.0 -1 ------- null}
r -t 0.711832 -s 0 -d 5 -p tcp -e 1040 -c 1 -i 86 -a 1 -x {0.0 5.0 43 ------- null}
+ -t 0.711832 -s 5 -d 0 -p ack -e 40 -c 1 -i 87 -a 1 -x {5.0 0.0 43 ------- null}
- -t 0.711832 -s 5 -d 0 -p ack -e 40 -c 1 -i 87 -a 1 -x {5.0 0.0 43 ------- null}
h -t 0.711832 -s 5 -d 0 -p ack -e 40 -c 1 -i 87 -a 1 -x {5.0 0.0 -1 ------- null}
r -t 0.712864 -s 5 -d 0 -p ack -e 40 -c 1 -i 87 -a 1 -x {5.0 0.0 43 ------- null}
+ -t 0.715 -s 0 -d 5 -p tcp -e 1040 -c 1 -i 88 -a 1 -x {0.0 5.0 44 ------- null}
- -t 0.715 -s 0 -d 5 -p tcp -e 1040 -c 1 -i 88 -a 1 -x {0.0 5.0 44 ------- null}
h -t 0.715 -s 0 -d 5 -p tcp -e 1040 -c 1 -i 88 -a 1 -x {0.0 5.0 -1 ------- null}
r -t 0.716832 -s 0 -d 5 -p tcp -e 1040 -c 1 -i 88 -a 1 -x {0.0 5.0 44 ------- null}
+ -t 0.716832 -s 5 -d 0 -p ack -e 40 -c 1 -i 89 -a 1 -x {5.0 0.0 44 ------- null}
- -t 0.716832 -s 5 -d 0 -p ack -e 40 -c 1 -i 89 -a 1 -x {5.0 0.0 44 ------- null}
h -t 0.716832 -s 5 -d 0 -p ack -e 40 -c 1 -i 89 -a 1 -x {5.0 0.0 -1 ------- null}