+ 0.5 0 5 tcp 40 ------- 1 0.0 5.0 0 0
- 0.5 0 5 tcp 40 ------- 1 0.0 5.0 0 0
r 0.501032 0 5 tcp 40 ------- 1 0.0 5.0 0 0
+ 0.501032 5 0 ack 40 ------- 1 5.0 0.0 0 1
- 0.501032 5 0 ack 40 ------- 1 5.0 0.0 0 1
r 0.502064 5 0 ack 40 ------- 1 5.0 0.0 0 1
+ 0.502064 0 5 tcp 1040 ------- 1 0.0 5.0 1 2
- 0.502064 0 5 tcp 1040 ------- 1 0.0 5.0 1 2
r 0.503896 0 5 tcp 1040 ------- 1 0.0 5.0 1 2
+ 0.503896 5 0 ack 40 ------- 1 5.0 0.0 1 3
- 0.503896 5 0 ack 40 ------- 1 5.0 0.0 1 3
r 0.504928 5 0 ack 40 ------- 1 5.0 0.0 1 3
+ 0.505 0 5 tcp 1040 ------- 1 0.0 5.0 2 4
- 0.505 0 5 tcp 1040 ------- 1 0.0 5.0 2 4
r 0.506832 0 5 tcp 1040 ------- 1 0.0 5.0 2 4
+ 0.506832 5 0 ack 40 ------- 1 5.0 0.0 2 5
- 0.506832 5 0 ack 40 ------- 1 5.0 0.0 2 5
r 0.507864 5 0 ack 40 ------- 1 5.0 0.0 2 5
+ 0.51 0 5 tcp 1040 ------- 1 0.0 5.0 3 6
- 0.51 0 5 tcp 1040 ------- 1 0.0 5.0 3 6
r 0.511832 0 5 tcp 1040 ------- 1 0.0 5.0 3 6
+ 0.511832 5 0 ack 40 ------- 1 5.0 0.0 3 7
- 0.511832 5 0 ack 40 ------- 1 5.0 0.0 3 7
r 0.512864 5 0 ack 40 ------- 1 5.0 0.0 3 7
+ 0.515 0 5 tcp 1040 ------- 1 0.0 5.0 4 8
- 0.515 0 5 tcp 1040 ------- 1 0.0 5.0 4 8
r 0.516832 0 5 tcp 1040 ------- 1 0.0 5.0 4 8
+ 0.516832 5 0 ack 40 ------- 1 5.0 0.0 4 9
- 0.516832 5 0 ack 40 ------- 1 5.0 0.0 4 9
r 0.517864 5 0 ack 40 ------- 1 5.0 0.0 4 9
+ 0.52 0 5 tcp 1040 ------- 1 0.0 5.0 5 10
- 0.52 0 5 tcp 1040 ------- 1 0.0 5.0 5 10
r 0.521832 0 5 tcp 1040 ------- 1 0.0 5.0 5 10
+ 0.521832 5 0 ack 40 ------- 1 5.0 0.0 5 11
- 0.521832 5 0 ack 40 ------- 1 5.0 0.0 5 11
r 0.522864 5 0 ack 40 ------- 1 5.0 0.0 5 11
+ 0.525 0 5 tcp 1040 ------- 1 0.0 5.0 6 12
- 0.525 0 5 tcp 1040 ------- 1 0.0 5.0 6 12
r 0.526832 0 5 tcp 1040 ------- 1 0.0 5.0 6 12
+ 0.526832 5 0 ack 40 ------- 1 5.0 0.0 6 13
- 0.526832 5 0 ack 40 ------- 1 5.0 0.0 6 13
r 0.527864 5 0 ack 40 ------- 1 5.0 0.0 6 13
+ 0.53 0 5 tcp 1040 ------- 1 0.0 5.0 7 14
- 0.53 0 5 tcp 1040 ------- 1 0.0 5.0 7 14
r 0.531832 0 5 tcp 1040 ------- 1 0.0 5.0 7 14
+ 0.531832 5 0 ack 40 ------- 1 5.0 0.0 7 15
- 0.531832 5 0 ack 40 ------- 1 5.0 0.0 7 15
r 0.532864 5 0 ack 40 ------- 1 5.0 0.0 7 15
+ 0.535 0 5 tcp 1040 ------- 1 0.0 5.0 8 16
- 0.535 0 5 tcp 1040 ------- 1 0.0 5.0 8 16
r 0.536832 0 5 tcp 1040 ------- 1 0.0 5.0 8 16
+ 0.536832 5 0 ack 40 ------- 1 5.0 0.0 8 17
- 0.536832 5 0 ack 40 ------- 1 5.0 0.0 8 17
r 0.537864 5 0 ack 40 ------- 1 5.0 0.0 8 17
+ 0.54 0 5 tcp 1040 ------- 1 0.0 5.0 9 18
- 0.54 0 5 tcp 1040 ------- 1 0.0 5.0 9 18
r 0.541832 0 5 tcp 1040 ------- 1 0.0 5.0 9 18
+ 0.541832 5 0 ack 40 ------- 1 5.0 0.0 9 19
- 0.541832 5 0 ack 40 ------- 1 5.0 0.0 9 19
r 0.542864 5 0 ack 40 ------- 1 5.0 0.0 9 19
+ 0.545 0 5 tcp 1040 ------- 1 0.0 5.0 10 20
- 0.545 0 5 tcp 1040 ------- 1 0.0 5.0 10 20
r 0.546832 0 5 tcp 1040 ------- 1 0.0 5.0 10 20
+ 0.546832 5 0 ack 40 ------- 1 5.0 0.0 10 21
- 0.546832 5 0 ack 40 ------- 1 5.0 0.0 10 21
r 0.547864 5 0 ack 40 ------- 1 5.0 0.0 10 21
+ 0.55 0 5 tcp 1040 ------- 1 0.0 5.0 11 22
- 0.55 0 5 tcp 1040 ------- 1 0.0 5.0 11 22
r 0.551832 0 5 tcp 1040 ------- 1 0.0 5.0 11 22
+ 0.551832 5 0 ack 40 ------- 1 5.0 0.0 11 23
- 0.551832 5 0 ack 40 ------- 1 5.0 0.0 11 23
r 0.552864 5 0 ack 40 ------- 1 5.0 0.0 11 23
+ 0.555 0 5 tcp 1040 ------- 1 0.0 5.0 12 24
- 0.555 0 5 tcp 1040 ------- 1 0.0 5.0 12 24
r 0.556832 0 5 tcp 1040 ------- 1 0.0 5.0 12 24
+ 0.556832 5 0 ack 40 ------- 1 5.0 0.0 12 25
- 0.556832 5 0 ack 40 ------- 1 5.0 0.0 12 25
r 0.557864 5 0 ack 40 ------- 1 5.0 0.0 12 25
+ 0.56 0 5 tcp 1040 ------- 1 0.0 5.0 13 26
- 0.56 0 5 tcp 1040 ------- 1 0.0 5.0 13 26
r 0.561832 0 5 tcp 1040 ------- 1 0.0 5.0 13 26
+ 0.561832 5 0 ack 40 ------- 1 5.0 0.0 13 27
- 0.561832 5 0 ack 40 ------- 1 5.0 0.0 13 27
r 0.562864 5 0 ack 40 ------- 1 5.0 0.0 13 27
+ 0.565 0 5 tcp 1040 ------- 1 0.0 5.0 14 28
- 0.565 0 5 tcp 1040 ------- 1 0.0 5.0 14 28
r 0.566832 0 5 tcp 1040 ------- 1 0.0 5.0 14 28
+ 0.566832 5 0 ack 40 ------- 1 5.0 0.0 14 29
- 0.566832 5 0 ack 40 ------- 1 5.0 0.0 14 29
r 0.567864 5 0 ack 40 ------- 1 5.0 0.0 14 29
+ 0.57 0 5 tcp 1040 ------- 1 0.0 5.0 15 30
- 0.57 0 5 tcp 1040 ------- 1 0.0 5.0 15 30
r 0.571832 0 5 tcp 1040 ------- 1 0.0 5.0 15 30
+ 0.571832 5 0 ack 40 ------- 1 5.0 0.0 15 31
- 0.571832 5 0 ack 40 ------- 1 5.0 0.0 15 31
r 0.572864 5 0 ack 40 ------- 1 5.0 0.0 15 31
+ 0.575 0 5 tcp 1040 ------- 1 0.0 5.0 16 32
- 0.575 0 5 tcp 1040 ------- 1 0.0 5.0 16 32
r 0.576832 0 5 tcp 1040 ------- 1 0.0 5.0 16 32
+ 0.576832 5 0 ack 40 ------- 1 5.0 0.0 16 33
- 0.576832 5 0 ack 40 ------- 1 5.0 0.0 16 33
r 0.577864 5 0 ack 40 ------- 1 5.0 0.0 16 33
+ 0.58 0 5 tcp 1040 ------- 1 0.0 5.0 17 34
- 0.58 0 5 tcp 1040 ------- 1 0.0 5.0 17 34
r 0.581832 0 5 tcp 1040 ------- 1 0.0 5.0 17 34
+ 0.581832 5 0 ack 40 ------- 1 5.0 0.0 17 35
- 0.581832 5 0 ack 40 ------- 1 5.0 0.0 17 35
r 0.582864 5 0 ack 40 ------- 1 5.0 0.0 17 35
+ 0.585 0 5 tcp 1040 ------- 1 0.0 5.0 18 36
- 0.585 0 5 tcp 1040 ------- 1 0.0 5.0 18 36
r 0.586832 0 5 tcp 1040 ------- 1 0.0 5.0 18 36
+ 0.586832 5 0 ack 40 ------- 1 5.0 0.0 18 37
- 0.586832 5 0 ack 40 ------- 1 5.0 0.0 18 37
r 0.587864 5 0 ack 40 ------- 1 5.0 0.0 18 37
+ 0.59 0 5 tcp 1040 ------- 1 0.0 5.0 19 38
- 0.59 0 5 tcp 1040 ------- 1 0.0 5.0 19 38
r 0.591832 0 5 tcp 1040 ------- 1 0.0 5.0 19 38
+ 0.591832 5 0 ack 40 ------- 1 5.0 0.0 19 39
- 0.591832 5 0 ack 40 ------- 1 5.0 0.0 19 39
r 0.592864 5 0 ack 40 ------- 1 5.0 0.0 19 39
+ 0.595 0 5 tcp 1040 ------- 1 0.0 5.0 20 40
- 0.595 0 5 tcp 1040 ------- 1 0.0 5.0 20 40
r 0.596832 0 5 tcp 1040 ------- 1 0.0 5.0 20 40
+ 0.596832 5 0 ack 40 ------- 1 5.0 0.0 20 41
- 0.596832 5 0 ack 40 ------- 1 5.0 0.0 20 41
r 0.597864 5 0 ack 40 ------- 1 5.0 0.0 20 41
+ 0.6 0 5 tcp 1040 ------- 1 0.0 5.0 21 42
- 0.6 0 5 tcp 1040 ------- 1 0.0 5.0 21 42
r 0.601832 0 5 tcp 1040 ------- 1 0.0 5.0 21 42
+ 0.601832 5 0 ack 40 ------- 1 5.0 0.0 21 43
- 0.601832 5 0 ack 40 ------- 1 5.0 0.0 21 43
r 0.602864 5 0 ack 40 ------- 1 5.0 0.0 21 43
+ 0.605 0 5 tcp 1040 ------- 1 0.0 5.0 22 44
- 0.605 0 5 tcp 1040 ------- 1 0.0 5.0 22 44
r 0.606832 0 5 tcp 1040 ------- 1 0.0 5.0 22 44
+ 0.606832 5 0 ack 40 ------- 1 5.0 0.0 22 45
- 0.606832 5 0 ack 40 ------- 1 5.0 0.0 22 45
r 0.607864 5 0 ack 40 ------- 1 5.0 0.0 22 45
+ 0.61 0 5 tcp 1040 ------- 1 0.0 5.0 23 46
- 0.61 0 5 tcp 1040 ------- 1 0.0 5.0 23 46
r 0.611832 0 5 tcp 1040 ------- 1 0.0 5.0 23 46
+ 0.611832 5 0 ack 40 ------- 1 5.0 0.0 23 47
- 0.611832 5 0 ack 40 ------- 1 5.0 0.0 23 47
r 0.612864 5 0 ack 40 ------- 1 5.0 0.0 23 47
+ 0.615 0 5 tcp 1040 ------- 1 0.0 5.0 24 48
- 0.615 0 5 tcp 1040 ------- 1 0.0 5.0 24 48
r 0.616832 0 5 tcp 1040 ------- 1 0.0 5.0 24 48
+ 0.616832 5 0 ack 40 ------- 1 5.0 0.0 24 49
- 0.616832 5 0 ack 40 ------- 1 5.0 0.0 24 49
r 0.617864 5 0 ack 40 ------- 1 5.0 0.0 24 49
+ 0.62 0 5 tcp 1040 ------- 1 0.0 5.0 25 50
- 0.62 0 5 tcp 1040 ------- 1 0.0 5.0 25 50
r 0.621832 0 5 tcp 1040 ------- 1 0.0 5.0 25 50
+ 0.621832 5 0 ack 40 ------- 1 5.0 0.0 25 51
- 0.621832 5 0 ack 40 ------- 1 5.0 0.0 25 51
r 0.622864 5 0 ack 40 ------- 1 5.0 0.0 25 51
+ 0.625 0 5 tcp 1040 ------- 1 0.0 5.0 26 52
- 0.625 0 5 tcp 1040 ------- 1 0.0 5.0 26 52
r 0.626832 0 5 tcp 1040 ------- 1 0.0 5.0 26 52
+ 0.626832 5 0 ack 40 ------- 1 5.0 0.0 26 53
- 0.626832 5 0 ack 40 ------- 1 5.0 0.0 26 53
r 0.627864 5 0 ack 40 ------- 1 5.0 0.0 26 53
+ 0.63 0 5 tcp 1040 ------- 1 0.0 5.0 27 54
- 0.63 0 5 tcp 1040 ------- 1 0.0 5.0 27 54
r 0.631832 0 5 tcp 1040 ------- 1 0.0 5.0 27 54
+ 0.631832 5 0 ack 40 ------- 1 5.0 0.0 27 55
- 0.631832 5 0 ack 40 ------- 1 5.0 0.0 27 55
r 0.632864 5 0 ack 40 ------- 1 5.0 0.0 27 55
+ 0.635 0 5 tcp 1040 ------- 1 0.0 5.0 28 56
- 0.635 0 5 tcp 1040 ------- 1 0.0 5.0 28 56
r 0.636832 0 5 tcp 1040 ------- 1 0.0 5.0 28 56
+ 0.636832 5 0 ack 40 ------- 1 5.0 0.0 28 57
- 0.636832 5 0 ack 40 ------- 1 5.0 0.0 28 57
r 0.637864 5 0 ack 40 ------- 1 5.0 0.0 28 57
+ 0.64 0 5 tcp 1040 ------- 1 0.0 5.0 29 58
- 0.64 0 5 tcp 1040 ------- 1 0.0 5.0 29 58
r 0.641832 0 5 tcp 1040 ------- 1 0.0 5.0 29 58
+ 0.641832 5 0 ack 40 ------- 1 5.0 0.0 29 59
- 0.641832 5 0 ack 40 ------- 1 5.0 0.0 29 59
r 0.642864 5 0 ack 40 ------- 1 5.0 0.0 29 59
+ 0.645 0 5 tcp 1040 ------- 1 0.0 5.0 30 60
- 0.645 0 5 tcp 1040 ------- 1 0.0 5.0 30 60
r 0.646832 0 5 tcp 1040 ------- 1 0.0 5.0 30 60
+ 0.646832 5 0 ack 40 ------- 1 5.0 0.0 30 61
- 0.646832 5 0 ack 40 ------- 1 5.0 0.0 30 61
r 0.647864 5 0 ack 40 ------- 1 5.0 0.0 30 61
+ 0.65 0 5 tcp 1040 ------- 1 0.0 5.0 31 62
- 0.65 0 5 tcp 1040 ------- 1 0.0 5.0 31 62
r 0.651832 0 5 tcp 1040 ------- 1 0.0 5.0 31 62
+ 0.651832 5 0 ack 40 ------- 1 5.0 0.0 31 63
- 0.651832 5 0 ack 40 ------- 1 5.0 0.0 31 63
r 0.652864 5 0 ack 40 ------- 1 5.0 0.0 31 63
+ 0.655 0 5 tcp 1040 ------- 1 0.0 5.0 32 64
- 0.655 0 5 tcp 1040 ------- 1 0.0 5.0 32 64
r 0.656832 0 5 tcp 1040 ------- 1 0.0 5.0 32 64
+ 0.656832 5 0 ack 40 ------- 1 5.0 0.0 32 65
- 0.656832 5 0 ack 40 ------- 1 5.0 0.0 32 65
r 0.657864 5 0 ack 40 ------- 1 5.0 0.0 32 65
+ 0.66 0 5 tcp 1040 ------- 1 0.0 5.0 33 66
- 0.66 0 5 tcp 1040 ------- 1 0.0 5.0 33 66
r 0.661832 0 5 tcp 1040 ------- 1 0.0 5.0 33 66
+ 0.661832 5 0 ack 40 ------- 1 5.0 0.0 33 67
- 0.661832 5 0 ack 40 ------- 1 5.0 0.0 33 67
r 0.662864 5 0 ack 40 ------- 1 5.0 0.0 33 67
+ 0.665 0 5 tcp 1040 ------- 1 0.0 5.0 34 68
- 0.665 0 5 tcp 1040 ------- 1 0.0 5.0 34 68
r 0.666832 0 5 tcp 1040 ------- 1 0.0 5.0 34 68
+ 0.666832 5 0 ack 40 ------- 1 5.0 0.0 34 69
- 0.666832 5 0 ack 40 ------- 1 5.0 0.0 34 69
r 0.667864 5 0 ack 40 ------- 1 5.0 0.0 34 69
+ 0.67 0 5 tcp 1040 ------- 1 0.0 5.0 35 70
- 0.67 0 5 tcp 1040 ------- 1 0.0 5.0 35 70
r 0.671832 0 5 tcp 1040 ------- 1 0.0 5.0 35 70
+ 0.671832 5 0 ack 40 ------- 1 5.0 0.0 35 71
- 0.671832 5 0 ack 40 ------- 1 5.0 0.0 35 71
r 0.672864 5 0 ack 40 ------- 1 5.0 0.0 35 71
+ 0.675 0 5 tcp 1040 ------- 1 0.0 5.0 36 72
- 0.675 0 5 tcp 1040 ------- 1 0.0 5.0 36 72
r 0.676832 0 5 tcp 1040 ------- 1 0.0 5.0 36 72
+ 0.676832 5 0 ack 40 ------- 1 5.0 0.0 36 73
- 0.676832 5 0 ack 40 ------- 1 5.0 0.0 36 73
r 0.677864 5 0 ack 40 ------- 1 5.0 0.0 36 73
+ 0.68 0 5 tcp 1040 ------- 1 0.0 5.0 37 74
- 0.68 0 5 tcp 1040 ------- 1 0.0 5.0 37 74
r 0.681832 0 5 tcp 1040 ------- 1 0.0 5.0 37 74
+ 0.681832 5 0 ack 40 ------- 1 5.0 0.0 37 75
- 0.681832 5 0 ack 40 ------- 1 5.0 0.0 37 75
r 0.682864 5 0 ack 40 ------- 1 5.0 0.0 37 75
+ 0.685 0 5 tcp 1040 ------- 1 0.0 5.0 38 76
- 0.685 0 5 tcp 1040 ------- 1 0.0 5.0 38 76
r 0.686832 0 5 tcp 1040 ------- 1 0.0 5.0 38 76
+ 0.686832 5 0 ack 40 ------- 1 5.0 0.0 38 77
- 0.686832 5 0 ack 40 ------- 1 5.0 0.0 38 77
r 0.687864 5 0 ack 40 ------- 1 5.0 0.0 38 77
+ 0.69 0 5 tcp 1040 ------- 1 0.0 5.0 39 78
- 0.69 0 5 tcp 1040 ------- 1 0.0 5.0 39 78
r 0.691832 0 5 tcp 1040 ------- 1 0.0 5.0 39 78
+ 0.691832 5 0 ack 40 ------- 1 5.0 0.0 39 79
- 0.691832 5 0 ack 40 ------- 1 5.0 0.0 39 79
r 0.692864 5 0 ack 40 ------- 1 5.0 0.0 39 79
+ 0.695 0 5 tcp 1040 ------- 1 0.0 5.0 40 80
- 0.695 0 5 tcp 1040 ------- 1 0.0 5.0 40 80
r 0.696832 0 5 tcp 1040 ------- 1 0.0 5.0 40 80
+ 0.696832 5 0 ack 40 ------- 1 5.0 0.0 40 81
- 0.696832 5 0 ack 40 ------- 1 5.0 0.0 40 81
r 0.697864 5 0 ack 40 ------- 1 5.0 0.0 40 81
+ 0.7 0 5 tcp 1040 ------- 1 0.0 5.0 41 82
- 0.7 0 5 tcp 1040 ------- 1 0.0 5.0 41 82
r 0.701832 0 5 tcp 1040 ------- 1 0.0 5.0 41 82
+ 0.701832 5 0 ack 40 ------- 1 5.0 0.0 41 83
- 0.701832 5 0 ack 40 ------- 1 5.0 0.0 41 83
r 0.702864 5 0 ack 40 ------- 1 5.0 0.0 41 83
+ 0.705 0 5 tcp 1040 ------- 1 0.0 5.0 42 84
- 0.705 0 5 tcp 1040 ------- 1 0.0 5.0 42 84
r 0.706832 0 5 tcp 1040 ------- 1 0.0 5.0 42 84
+ 0.706832 5 0 ack 40 ------- 1 5.0 0.0 42 85
- 0.706832 5 0 ack 40 ------- 1 5.0 0.0 42 85
r 0.707864 5 0 ack 40 ------- 1 5.0 0.0 42 85
+ 0.71 0 5 tcp 1040 ------- 1 0.0 5.0 43 86
- 0.71 0 5 tcp 1040 ------- 1 0.0 5.0 43 86
r 0.711832 0 5 tcp 1040 ------- 1 0.0 5.0 43 86
+ 0.711832 5 0 ack 40 ------- 1 5.0 0.0 43 87
- 0.711832 5 0 ack 40 ------- 1 5.0 0.0 43 87
r 0.712864 5 0 ack 40 ------- 1 5.0 0.0 43 87
+ 0.715 0 5 tcp 1040 ------- 1 0.0 5.0 44 88
- 0.715 0 5 tcp 1040 ------- 1 0.0 5.0 44 88
r 0.716832 0 5 tcp 1040 ------- 1 0.0 5.0 44 88
+ 0.716832 5 0 ack 40 ------- 1 5.0 0.0 44 89
- 0.716832 5 0 ack 40 ------- 1 5.0 0.0 44 89
r 0.717864 5 0 ack 40 ------- 1 5.0 0.0 44 89
+ 0.72 0 5 tcp 1040 ------- 1 0.0 5.0 45 90
- 0.72 0 5 tcp 1040 ------- 1 0.0 5.0 45 90
r 0.721832 0 5 tcp 1040 ------- 1 0.0 5.0 45 90
+ 0.721832 5 0 ack 40 ------- 1 5.0 0.0 45 91
- 0.721832 5 0 ack 40 ------- 1 5.0 0.0 45 91
r 0.722864 5 0 ack 40 ------- 1 5.0 0.0 45 91
+ 0.725 0 5 tcp 1040 ------- 1 0.0 5.0 46 92
- 0.725 0 5 tcp 1040 ------- 1 0.0 5.0 46 92
r 0.726832 0 5 tcp 1040 ------- 1 0.0 5.0 46 92
+ 0.726832 5 0 ack 40 ------- 1 5.0 0.0 46 93
- 0.726832 5 0 ack 40 ------- 1 5.0 0.0 46 93
r 0.727864 5 0 ack 40 ------- 1 5.0 0.0 46 93
+ 0.73 0 5 tcp 1040 ------- 1 0.0 5.0 47 94
- 0.73 0 5 tcp 1040 ------- 1 0.0 5.0 47 94
r 0.731832 0 5 tcp 1040 ------- 1 0.0 5.0 47 94
+ 0.731832 5 0 ack 40 ------- 1 5.0 0.0 47 95
- 0.731832 5 0 ack 40 ------- 1 5.0 0.0 47 95
r 0.732864 5 0 ack 40 ------- 1 5.0 0.0 47 95
+ 0.735 0 5 tcp 1040 ------- 1 0.0 5.0 48 96
- 0.735 0 5 tcp 1040 ------- 1 0.0 5.0 48 96
r 0.736832 0 5 tcp 1040 ------- 1 0.0 5.0 48 96
+ 0.736832 5 0 ack 40 ------- 1 5.0 0.0 48 97
- 0.736832 5 0 ack 40 ------- 1 5.0 0.0 48 97
r 0.737864 5 0 ack 40 ------- 1 5.0 0.0 48 97
+ 0.74 0 5 tcp 1040 ------- 1 0.0 5.0 49 98
- 0.74 0 5 tcp 1040 ------- 1 0.0 5.0 49 98
r 0.741832 0 5 tcp 1040 ------- 1 0.0 5.0 49 98
+ 0.741832 5 0 ack 40 ------- 1 5.0 0.0 49 99
- 0.741832 5 0 ack 40 ------- 1 5.0 0.0 49 99
r 0.742864 5 0 ack 40 ------- 1 5.0 0.0 49 99
+ 0.745 0 5 tcp 1040 ------- 1 0.0 5.0 50 100
- 0.745 0 5 tcp 1040 ------- 1 0.0 5.0 50 100
r 0.746832 0 5 tcp 1040 ------- 1 0.0 5.0 50 100
+ 0.746832 5 0 ack 40 ------- 1 5.0 0.0 50 101
- 0.746832 5 0 ack 40 ------- 1 5.0 0.0 50 101
r 0.747864 5 0 ack 40 ------- 1 5.0 0.0 50 101
+ 0.75 0 5 tcp 1040 ------- 1 0.0 5.0 51 102
- 0.75 0 5 tcp 1040 ------- 1 0.0 5.0 51 102
r 0.751832 0 5 tcp 1040 ------- 1 0.0 5.0 51 102
+ 0.751832 5 0 ack 40 ------- 1 5.0 0.0 51 103
- 0.751832 5 0 ack 40 ------- 1 5.0 0.0 51 103
r 0.752864 5 0 ack 40 ------- 1 5.0 0.0 51 103
+ 0.755 0 5 tcp 1040 ------- 1 0.0 5.0 52 104
- 0.755 0 5 tcp 1040 ------- 1 0.0 5.0 52 104
r 0.756832 0 5 tcp 1040 ------- 1 0.0 5.0 52 104
+ 0.756832 5 0 ack 40 ------- 1 5.0 0.0 52 105
- 0.756832 5 0 ack 40 ------- 1 5.0 0.0 52 105
r 0.757864 5 0 ack 40 ------- 1 5.0 0.0 52 105
+ 0.76 0 5 tcp 1040 ------- 1 0.0 5.0 53 106
- 0.76 0 5 tcp 1040 ------- 1 0.0 5.0 53 106
r 0.761832 0 5 tcp 1040 ------- 1 0.0 5.0 53 106
+ 0.761832 5 0 ack 40 ------- 1 5.0 0.0 53 107
- 0.761832 5 0 ack 40 ------- 1 5.0 0.0 53 107
r 0.762864 5 0 ack 40 ------- 1 5.0 0.0 53 107
+ 0.765 0 5 tcp 1040 ------- 1 0.0 5.0 54 108
- 0.765 0 5 tcp 1040 ------- 1 0.0 5.0 54 108
r 0.766832 0 5 tcp 1040 ------- 1 0.0 5.0 54 108
+ 0.766832 5 0 ack 40 ------- 1 5.0 0.0 54 109
- 0.766832 5 0 ack 40 ------- 1 5.0 0.0 54 109
r 0.767864 5 0 ack 40 ------- 1 5.0 0.0 54 109
+ 0.77 0 5 tcp 1040 ------- 1 0.0 5.0 55 110
- 0.77 0 5 tcp 1040 ------- 1 0.0 5.0 55 110
r 0.771832 0 5 tcp 1040 ------- 1 0.0 5.0 55 110
+ 0.771832 5 0 ack 40 ------- 1 5.0 0.0 55 111
- 0.771832 5 0 ack 40 ------- 1 5.0 0.0 55 111
r 0.772864 5 0 ack 40 ------- 1 5.0 0.0 55 111
+ 0.775 0 5 tcp 1040 ------- 1 0.0 5.0 56 112
- 0.775 0 5 tcp 1040 ------- 1 0.0 5.0 56 112
r 0.776832 0 5 tcp 1040 ------- 1 0.0 5.0 56 112
+ 0.776832 5 0 ack 40 ------- 1 5.0 0.0 56 113
- 0.776832 5 0 ack 40 ------- 1 5.0 0.0 56 113
r 0.777864 5 0 ack 40 ------- 1 5.0 0.0 56 113
+ 0.78 0 5 tcp 1040 ------- 1 0.0 5.0 57 114
- 0.78 0 5 tcp 1040 ------- 1 0.0 5.0 57 114
r 0.781832 0 5 tcp 1040 ------- 1 0.0 5.0 57 114
+ 0.781832 5 0 ack 40 ------- 1 5.0 0.0 57 115
- 0.781832 5 0 ack 40 ------- 1 5.0 0.0 57 115
r 0.782864 5 0 ack 40 ------- 1 5.0 0.0 57 115
+ 0.785 0 5 tcp 1040 ------- 1 0.0 5.0 58 116
- 0.785 0 5 tcp 1040 ------- 1 0.0 5.0 58 116
r 0.786832 0 5 tcp 1040 ------- 1 0.0 5.0 58 116
+ 0.786832 5 0 ack 40 ------- 1 5.0 0.0 58 117
- 0.786832 5 0 ack 40 ------- 1 5.0 0.0 58 117
r 0.787864 5 0 ack 40 ------- 1 5.0 0.0 58 117
+ 0.79 0 5 tcp 1040 ------- 1 0.0 5.0 59 118
- 0.79 0 5 tcp 1040 ------- 1 0.0 5.0 59 118
r 0.791832 0 5 tcp 1040 ------- 1 0.0 5.0 59 118
+ 0.791832 5 0 ack 40 ------- 1 5.0 0.0 59 119
- 0.791832 5 0 ack 40 ------- 1 5.0 0.0 59 119
r 0.792864 5 0 ack 40 ------- 1 5.0 0.0 59 119
+ 0.795 0 5 tcp 1040 ------- 1 0.0 5.0 60 120
- 0.795 0 5 tcp 1040 ------- 1 0.0 5.0 60 120
r 0.796832 0 5 tcp 1040 ------- 1 0.0 5.0 60 120
+ 0.796832 5 0 ack 40 ------- 1 5.0 0.0 60 121
- 0.796832 5 0 ack 40 ------- 1 5.0 0.0 60 121
r 0.797864 5 0 ack 40 ------- 1 5.0 0.0 60 121
+ 0.8 0 5 tcp 1040 ------- 1 0.0 5.0 61 122
- 0.8 0 5 tcp 1040 ------- 1 0.0 5.0 61 122
r 0.801832 0 5 tcp 1040 ------- 1 0.0 5.0 61 122
+ 0.801832 5 0 ack 40 ------- 1 5.0 0.0 61 123
- 0.801832 5 0 ack 40 ------- 1 5.0 0.0 61 123
r 0.802864 5 0 ack 40 ------- 1 5.0 0.0 61 123
+ 0.805 0 5 tcp 1040 ------- 1 0.0 5.0 62 124
- 0.805 0 5 tcp 1040 ------- 1 0.0 5.0 62 124
r 0.806832 0 5 tcp 1040 ------- 1 0.0 5.0 62 124
+ 0.806832 5 0 ack 40 ------- 1 5.0 0.0 62 125
- 0.806832 5 0 ack 40 ------- 1 5.0 0.0 62 125
r 0.807864 5 0 ack 40 ------- 1 5.0 0.0 62 125
+ 0.81 0 5 tcp 1040 ------- 1 0.0 5.0 63 126
- 0.81 0 5 tcp 1040 ------- 1 0.0 5.0 63 126
r 0.811832 0 5 tcp 1040 ------- 1 0.0 5.0 63 126
+ 0.811832 5 0 ack 40 ------- 1 5.0 0.0 63 127
- 0.811832 5 0 ack 40 ------- 1 5.0 0.0 63 127
r 0.812864 5 0 ack 40 ------- 1 5.0 0.0 63 127
+ 0.815 0 5 tcp 1040 ------- 1 0.0 5.0 64 128
- 0.815 0 5 tcp 1040 ------- 1 0.0 5.0 64 128
r 0.816832 0 5 tcp 1040 ------- 1 0.0 5.0 64 128
+ 0.816832 5 0 ack 40 ------- 1 5.0 0.0 64 129
- 0.816832 5 0 ack 40 ------- 1 5.0 0.0 64 129
r 0.817864 5 0 ack 40 ------- 1 5.0 0.0 64 129
+ 0.82 0 5 tcp 1040 ------- 1 0.0 5.0 65 130
- 0.82 0 5 tcp 1040 ------- 1 0.0 5.0 65 130
r 0.821832 0 5 tcp 1040 ------- 1 0.0 5.0 65 130
+ 0.821832 5 0 ack 40 ------- 1 5.0 0.0 65 131
- 0.821832 5 0 ack 40 ------- 1 5.0 0.0 65 131
r 0.822864 5 0 ack 40 ------- 1 5.0 0.0 65 131
+ 0.825 0 5 tcp 1040 ------- 1 0.0 5.0 66 132
- 0.825 0 5 tcp 1040 ------- 1 0.0 5.0 66 132
r 0.826832 0 5 tcp 1040 ------- 1 0.0 5.0 66 132
+ 0.826832 5 0 ack 40 ------- 1 5.0 0.0 66 133
- 0.826832 5 0 ack 40 ------- 1 5.0 0.0 66 133
r 0.827864 5 0 ack 40 ------- 1 5.0 0.0 66 133
+ 0.83 0 5 tcp 1040 ------- 1 0.0 5.0 67 134
- 0.83 0 5 tcp 1040 ------- 1 0.0 5.0 67 134
r 0.831832 0 5 tcp 1040 ------- 1 0.0 5.0 67 134
+ 0.831832 5 0 ack 40 ------- 1 5.0 0.0 67 135
- 0.831832 5 0 ack 40 ------- 1 5.0 0.0 67 135
r 0.832864 5 0 ack 40 ------- 1 5.0 0.0 67 135
+ 0.835 0 5 tcp 1040 ------- 1 0.0 5.0 68 136
- 0.835 0 5 tcp 1040 ------- 1 0.0 5.0 68 136
r 0.836832 0 5 tcp 1040 ------- 1 0.0 5.0 68 136
+ 0.836832 5 0 ack 40 ------- 1 5.0 0.0 68 137
- 0.836832 5 0 ack 40 ------- 1 5.0 0.0 68 137
r 0.837864 5 0 ack 40 ------- 1 5.0 0.0 68 137
+ 0.84 0 5 tcp 1040 ------- 1 0.0 5.0 69 138
- 0.84 0 5 tcp 1040 ------- 1 0.0 5.0 69 138
r 0.841832 0 5 tcp 1040 ------- 1 0.0 5.0 69 138
+ 0.841832 5 0 ack 40 ------- 1 5.0 0.0 69 139
- 0.841832 5 0 ack 40 ------- 1 5.0 0.0 69 139
r 0.842864 5 0 ack 40 ------- 1 5.0 0.0 69 139
+ 0.845 0 5 tcp 1040 ------- 1 0.0 5.0 70 140
- 0.845 0 5 tcp 1040 ------- 1 0.0 5.0 70 140
r 0.846832 0 5 tcp 1040 ------- 1 0.0 5.0 70 140
+ 0.846832 5 0 ack 40 ------- 1 5.0 0.0 70 141
- 0.846832 5 0 ack 40 ------- 1 5.0 0.0 70 141
r 0.847864 5 0 ack 40 ------- 1 5.0 0.0 70 141
+ 0.85 0 5 tcp 1040 ------- 1 0.0 5.0 71 142
- 0.85 0 5 tcp 1040 ------- 1 0.0 5.0 71 142
r 0.851832 0 5 tcp 1040 ------- 1 0.0 5.0 71 142
+ 0.851832 5 0 ack 40 ------- 1 5.0 0.0 71 143
- 0.851832 5 0 ack 40 ------- 1 5.0 0.0 71 143
r 0.852864 5 0 ack 40 ------- 1 5.0 0.0 71 143
+ 0.855 0 5 tcp 1040 ------- 1 0.0 5.0 72 144
- 0.855 0 5 tcp 1040 ------- 1 0.0 5.0 72 144
r 0.856832 0 5 tcp 1040 ------- 1 0.0 5.0 72 144
+ 0.856832 5 0 ack 40 ------- 1 5.0 0.0 72 145
- 0.856832 5 0 ack 40 ------- 1 5.0 0.0 72 145
r 0.857864 5 0 ack 40 ------- 1 5.0 0.0 72 145
+ 0.86 0 5 tcp 1040 ------- 1 0.0 5.0 73 146
- 0.86 0 5 tcp 1040 ------- 1 0.0 5.0 73 146
r 0.861832 0 5 tcp 1040 ------- 1 0.0 5.0 73 146
+ 0.861832 5 0 ack 40 ------- 1 5.0 0.0 73 147
- 0.861832 5 0 ack 40 ------- 1 5.0 0.0 73 147
r 0.862864 5 0 ack 40 ------- 1 5.0 0.0 73 147
+ 0.865 0 5 tcp 1040 ------- 1 0.0 5.0 74 148
- 0.865 0 5 tcp 1040 ------- 1 0.0 5.0 74 148
r 0.866832 0 5 tcp 1040 ------- 1 0.0 5.0 74 148
+ 0.866832 5 0 ack 40 ------- 1 5.0 0.0 74 149
- 0.866832 5 0 ack 40 ------- 1 5.0 0.0 74 149
r 0.867864 5 0 ack 40 ------- 1 5.0 0.0 74 149
+ 0.87 0 5 tcp 1040 ------- 1 0.0 5.0 75 150
- 0.87 0 5 tcp 1040 ------- 1 0.0 5.0 75 150
r 0.871832 0 5 tcp 1040 ------- 1 0.0 5.0 75 150
+ 0.871832 5 0 ack 40 ------- 1 5.0 0.0 75 151
- 0.871832 5 0 ack 40 ------- 1 5.0 0.0 75 151
r 0.872864 5 0 ack 40 ------- 1 5.0 0.0 75 151
+ 0.875 0 5 tcp 1040 ------- 1 0.0 5.0 76 152
- 0.875 0 5 tcp 1040 ------- 1 0.0 5.0 76 152
r 0.876832 0 5 tcp 1040 ------- 1 0.0 5.0 76 152
+ 0.876832 5 0 ack 40 ------- 1 5.0 0.0 76 153
- 0.876832 5 0 ack 40 ------- 1 5.0 0.0 76 153
r 0.877864 5 0 ack 40 ------- 1 5.0 0.0 76 153
+ 0.88 0 5 tcp 1040 ------- 1 0.0 5.0 77 154
- 0.88 0 5 tcp 1040 ------- 1 0.0 5.0 77 154
r 0.881832 0 5 tcp 1040 ------- 1 0.0 5.0 77 154
+ 0.881832 5 0 ack 40 ------- 1 5.0 0.0 77 155
- 0.881832 5 0 ack 40 ------- 1 5.0 0.0 77 155
r 0.882864 5 0 ack 40 ------- 1 5.0 0.0 77 155
+ 0.885 0 5 tcp 1040 ------- 1 0.0 5.0 78 156
- 0.885 0 5 tcp 1040 ------- 1 0.0 5.0 78 156
r 0.886832 0 5 tcp 1040 ------- 1 0.0 5.0 78 156
+ 0.886832 5 0 ack 40 ------- 1 5.0 0.0 78 157
- 0.886832 5 0 ack 40 ------- 1 5.0 0.0 78 157
r 0.887864 5 0 ack 40 ------- 1 5.0 0.0 78 157
+ 0.89 0 5 tcp 1040 ------- 1 0.0 5.0 79 158
- 0.89 0 5 tcp 1040 ------- 1 0.0 5.0 79 158
r 0.891832 0 5 tcp 1040 ------- 1 0.0 5.0 79 158
+ 0.891832 5 0 ack 40 ------- 1 5.0 0.0 79 159
- 0.891832 5 0 ack 40 ------- 1 5.0 0.0 79 159
r 0.892864 5 0 ack 40 ------- 1 5.0 0.0 79 159
+ 0.895 0 5 tcp 1040 ------- 1 0.0 5.0 80 160
- 0.895 0 5 tcp 1040 ------- 1 0.0 5.0 80 160
r 0.896832 0 5 tcp 1040 ------- 1 0.0 5.0 80 160
+ 0.896832 5 0 ack 40 ------- 1 5.0 0.0 80 161
- 0.896832 5 0 ack 40 ------- 1 5.0 0.0 80 161
r 0.897864 5 0 ack 40 ------- 1 5.0 0.0 80 161
+ 0.9 0 5 tcp 1040 ------- 1 0.0 5.0 81 162
- 0.9 0 5 tcp 1040 ------- 1 0.0 5.0 81 162
r 0.901832 0 5 tcp 1040 ------- 1 0.0 5.0 81 162
+ 0.901832 5 0 ack 40 ------- 1 5.0 0.0 81 163
- 0.901832 5 0 ack 40 ------- 1 5.0 0.0 81 163
r 0.902864 5 0 ack 40 ------- 1 5.0 0.0 81 163
+ 0.905 0 5 tcp 1040 ------- 1 0.0 5.0 82 164
- 0.905 0 5 tcp 1040 ------- 1 0.0 5.0 82 164
r 0.906832 0 5 tcp 1040 ------- 1 0.0 5.0 82 164
+ 0.906832 5 0 ack 40 ------- 1 5.0 0.0 82 165
- 0.906832 5 0 ack 40 ------- 1 5.0 0.0 82 165
r 0.907864 5 0 ack 40 ------- 1 5.0 0.0 82 165
+ 0.91 0 5 tcp 1040 ------- 1 0.0 5.0 83 166
- 0.91 0 5 tcp 1040 ------- 1 0.0 5.0 83 166
r 0.911832 0 5 tcp 1040 ------- 1 0.0 5.0 83 166
+ 0.911832 5 0 ack 40 ------- 1 5.0 0.0 83 167
- 0.911832 5 0 ack 40 ------- 1 5.0 0.0 83 167
r 0.912864 5 0 ack 40 ------- 1 5.0 0.0 83 167
+ 0.915 0 5 tcp 1040 ------- 1 0.0 5.0 84 168
- 0.915 0 5 tcp 1040 ------- 1 0.0 5.0 84 168
r 0.916832 0 5 tcp 1040 ------- 1 0.0 5.0 84 168
+ 0.916832 5 0 ack 40 ------- 1 5.0 0.0 84 169
- 0.916832 5 0 ack 40 ------- 1 5.0 0.0 84 169
r 0.917864 5 0 ack 40 ------- 1 5.0 0.0 84 169
+ 0.92 0 5 tcp 1040 ------- 1 0.0 5.0 85 170
- 0.92 0 5 tcp 1040 ------- 1 0.0 5.0 85 170
r 0.921832 0 5 tcp 1040 ------- 1 0.0 5.0 85 170
+ 0.921832 5 0 ack 40 ------- 1 5.0 0.0 85 171
- 0.921832 5 0 ack 40 ------- 1 5.0 0.0 85 171
r 0.922864 5 0 ack 40 ------- 1 5.0 0.0 85 171
+ 0.925 0 5 tcp 1040 ------- 1 0.0 5.0 86 172
- 0.925 0 5 tcp 1040 ------- 1 0.0 5.0 86 172
r 0.926832 0 5 tcp 1040 ------- 1 0.0 5.0 86 172
+ 0.926832 5 0 ack 40 ------- 1 5.0 0.0 86 173
- 0.926832 5 0 ack 40 ------- 1 5.0 0.0 86 173
r 0.927864 5 0 ack 40 ------- 1 5.0 0.0 86 173
+ 0.93 0 5 tcp 1040 ------- 1 0.0 5.0 87 174
- 0.93 0 5 tcp 1040 ------- 1 0.0 5.0 87 174
r 0.931832 0 5 tcp 1040 ------- 1 0.0 5.0 87 174
+ 0.931832 5 0 ack 40 ------- 1 5.0 0.0 87 175
- 0.931832 5 0 ack 40 ------- 1 5.0 0.0 87 175
r 0.932864 5 0 ack 40 ------- 1 5.0 0.0 87 175
+ 0.935 0 5 tcp 1040 ------- 1 0.0 5.0 88 176
- 0.935 0 5 tcp 1040 ------- 1 0.0 5.0 88 176
r 0.936832 0 5 tcp 1040 ------- 1 0.0 5.0 88 176
+ 0.936832 5 0 ack 40 ------- 1 5.0 0.0 88 177
- 0.936832 5 0 ack 40 ------- 1 5.0 0.0 88 177
r 0.937864 5 0 ack 40 ------- 1 5.0 0.0 88 177
+ 0.94 0 5 tcp 1040 ------- 1 0.0 5.0 89 178
- 0.94 0 5 tcp 1040 ------- 1 0.0 5.0 89 178
r 0.941832 0 5 tcp 1040 ------- 1 0.0 5.0 89 178
+ 0.941832 5 0 ack 40 ------- 1 5.0 0.0 89 179
- 0.941832 5 0 ack 40 ------- 1 5.0 0.0 89 179
r 0.942864 5 0 ack 40 ------- 1 5.0 0.0 89 179
+ 0.945 0 5 tcp 1040 ------- 1 0.0 5.0 90 180
- 0.945 0 5 tcp 1040 ------- 1 0.0 5.0 90 180
r 0.946832 0 5 tcp 1040 ------- 1 0.0 5.0 90 180
+ 0.946832 5 0 ack 40 ------- 1 5.0 0.0 90 181
- 0.946832 5 0 ack 40 ------- 1 5.0 0.0 90 181
r 0.947864 5 0 ack 40 ------- 1 5.0 0.0 90 181
+ 0.95 0 5 tcp 1040 ------- 1 0.0 5.0 91 182
- 0.95 0 5 tcp 1040 ------- 1 0.0 5.0 91 182
r 0.951832 0 5 tcp 1040 ------- 1 0.0 5.0 91 182
+ 0.951832 5 0 ack 40 ------- 1 5.0 0.0 91 183
- 0.951832 5 0 ack 40 ------- 1 5.0 0.0 91 183
r 0.952864 5 0 ack 40 ------- 1 5.0 0.0 91 183
+ 0.955 0 5 tcp 1040 ------- 1 0.0 5.0 92 184
- 0.955 0 5 tcp 1040 ------- 1 0.0 5.0 92 184
r 0.956832 0 5 tcp 1040 ------- 1 0.0 5.0 92 184
+ 0.956832 5 0 ack 40 ------- 1 5.0 0.0 92 185
- 0.956832 5 0 ack 40 ------- 1 5.0 0.0 92 185
r 0.957864 5 0 ack 40 ------- 1 5.0 0.0 92 185
+ 0.96 0 5 tcp 1040 ------- 1 0.0 5.0 93 186
- 0.96 0 5 tcp 1040 ------- 1 0.0 5.0 93 186
r 0.961832 0 5 tcp 1040 ------- 1 0.0 5.0 93 186
+ 0.961832 5 0 ack 40 ------- 1 5.0 0.0 93 187
- 0.961832 5 0 ack 40 ------- 1 5.0 0.0 93 187
r 0.962864 5 0 ack 40 ------- 1 5.0 0.0 93 187
+ 0.965 0 5 tcp 1040 ------- 1 0.0 5.0 94 188
- 0.965 0 5 tcp 1040 ------- 1 0.0 5.0 94 188
r 0.966832 0 5 tcp 1040 ------- 1 0.0 5.0 94 188
+ 0.966832 5 0 ack 40 ------- 1 5.0 0.0 94 189
- 0.966832 5 0 ack 40 ------- 1 5.0 0.0 94 189
r 0.967864 5 0 ack 40 ------- 1 5.0 0.0 94 189
+ 0.97 0 5 tcp 1040 ------- 1 0.0 5.0 95 190
- 0.97 0 5 tcp 1040 ------- 1 0.0 5.0 95 190
r 0.971832 0 5 tcp 1040 ------- 1 0.0 5.0 95 190
+ 0.971832 5 0 ack 40 ------- 1 5.0 0.0 95 191
- 0.971832 5 0 ack 40 ------- 1 5.0 0.0 95 191
r 0.972864 5 0 ack 40 ------- 1 5.0 0.0 95 191
+ 0.975 0 5 tcp 1040 ------- 1 0.0 5.0 96 192
- 0.975 0 5 tcp 1040 ------- 1 0.0 5.0 96 192
r 0.976832 0 5 tcp 1040 ------- 1 0.0 5.0 96 192
+ 0.976832 5 0 ack 40 ------- 1 5.0 0.0 96 193
- 0.976832 5 0 ack 40 ------- 1 5.0 0.0 96 193
r 0.977864 5 0 ack 40 ------- 1 5.0 0.0 96 193
+ 0.98 0 5 tcp 1040 ------- 1 0.0 5.0 97 194
- 0.98 0 5 tcp 1040 ------- 1 0.0 5.0 97 194
r 0.981832 0 5 tcp 1040 ------- 1 0.0 5.0 97 194
+ 0.981832 5 0 ack 40 ------- 1 5.0 0.0 97 195
- 0.981832 5 0 ack 40 ------- 1 5.0 0.0 97 195
r 0.982864 5 0 ack 40 ------- 1 5.0 0.0 97 195
+ 0.985 0 5 tcp 1040 ------- 1 0.0 5.0 98 196
- 0.985 0 5 tcp 1040 ------- 1 0.0 5.0 98 196
r 0.986832 0 5 tcp 1040 ------- 1 0.0 5.0 98 196
+ 0.986832 5 0 ack 40 ------- 1 5.0 0.0 98 197
- 0.986832 5 0 ack 40 ------- 1 5.0 0.0 98 197
r 0.987864 5 0 ack 40 ------- 1 5.0 0.0 98 197
+ 0.99 0 5 tcp 1040 ------- 1 0.0 5.0 99 198
- 0.99 0 5 tcp 1040 ------- 1 0.0 5.0 99 198
r 0.991832 0 5 tcp 1040 ------- 1 0.0 5.0 99 198
+ 0.991832 5 0 ack 40 ------- 1 5.0 0.0 99 199
- 0.991832 5 0 ack 40 ------- 1 5.0 0.0 99 199
r 0.992864 5 0 ack 40 ------- 1 5.0 0.0 99 199
+ 0.995 0 5 tcp 1040 ------- 1 0.0 5.0 100 200
- 0.995 0 5 tcp 1040 ------- 1 0.0 5.0 100 200
r 0.996832 0 5 tcp 1040 ------- 1 0.0 5.0 100 200
+ 0.996832 5 0 ack 40 ------- 1 5.0 0.0 100 201
- 0.996832 5 0 ack 40 ------- 1 5.0 0.0 100 201
r 0.997864 5 0 ack 40 ------- 1 5.0 0.0 100 201
+ 1 0 5 tcp 1040 ------- 1 0.0 5.0 101 202
- 1 0 5 tcp 1040 ------- 1 0.0 5.0 101 202
r 1.001832 0 5 tcp 1040 ------- 1 0.0 5.0 101 202
+ 1.001832 5 0 ack 40 ------- 1 5.0 0.0 101 203
- 1.001832 5 0 ack 40 ------- 1 5.0 0.0 101 203
r 1.002864 5 0 ack 40 ------- 1 5.0 0.0 101 203
+ 1.005 0 5 tcp 1040 ------- 1 0.0 5.0 102 204
- 1.005 0 5 tcp 1040 ------- 1 0.0 5.0 102 204
r 1.006832 0 5 tcp 1040 ------- 1 0.0 5.0 102 204
+ 1.006832 5 0 ack 40 ------- 1 5.0 0.0 102 205
- 1.006832 5 0 ack 40 ------- 1 5.0 0.0 102 205
r 1.007864 5 0 ack 40 ------- 1 5.0 0.0 102 205
+ 1.01 0 5 tcp 1040 ------- 1 0.0 5.0 103 206
- 1.01 0 5 tcp 1040 ------- 1 0.0 5.0 103 206
r 1.011832 0 5 tcp 1040 ------- 1 0.0 5.0 103 206
+ 1.011832 5 0 ack 40 ------- 1 5.0 0.0 103 207
- 1.011832 5 0 ack 40 ------- 1 5.0 0.0 103 207
r 1.012864 5 0 ack 40 ------- 1 5.0 0.0 103 207
+ 1.015 0 5 tcp 1040 ------- 1 0.0 5.0 104 208
- 1.015 0 5 tcp 1040 ------- 1 0.0 5.0 104 208
r 1.016832 0 5 tcp 1040 ------- 1 0.0 5.0 104 208
+ 1.016832 5 0 ack 40 ------- 1 5.0 0.0 104 209
- 1.016832 5 0 ack 40 ------- 1 5.0 0.0 104 209
r 1.017864 5 0 ack 40 ------- 1 5.0 0.0 104 209
+ 1.02 0 5 tcp 1040 ------- 1 0.0 5.0 105 210
- 1.02 0 5 tcp 1040 ------- 1 0.0 5.0 105 210
r 1.021832 0 5 tcp 1040 ------- 1 0.0 5.0 105 210
+ 1.021832 5 0 ack 40 ------- 1 5.0 0.0 105 211
- 1.021832 5 0 ack 40 ------- 1 5.0 0.0 105 211
r 1.022864 5 0 ack 40 ------- 1 5.0 0.0 105 211
+ 1.025 0 5 tcp 1040 ------- 1 0.0 5.0 106 212
- 1.025 0 5 tcp 1040 ------- 1 0.0 5.0 106 212
r 1.026832 0 5 tcp 1040 ------- 1 0.0 5.0 106 212
+ 1.026832 5 0 ack 40 ------- 1 5.0 0.0 106 213
- 1.026832 5 0 ack 40 ------- 1 5.0 0.0 106 213
r 1.027864 5 0 ack 40 ------- 1 5.0 0.0 106 213
+ 1.03 0 5 tcp 1040 ------- 1 0.0 5.0 107 214
- 1.03 0 5 tcp 1040 ------- 1 0.0 5.0 107 214
r 1.031832 0 5 tcp 1040 ------- 1 0.0 5.0 107 214
+ 1.031832 5 0 ack 40 ------- 1 5.0 0.0 107 215
- 1.031832 5 0 ack 40 ------- 1 5.0 0.0 107 215
r 1.032864 5 0 ack 40 ------- 1 5.0 0.0 107 215